Gaussian run using SANDER external interface, route from template gau_jo
Freq      RB3LYP                                                      def2SVP             
Number of atoms                            I               17
Info1-9                                    I   N=           9
          26          26        1002           0           0         100
           6          18        -502
Full Title                                 C   N=           7
Gaussian run using SANDER external interface, route from tem
plate gau_job.tpl       
Route                                      C   N=           4
#P b3lyp/def2svp opt=(calcfc, noeigen) Freq     
Charge                                     I               -1
Multiplicity                               I                1
Number of electrons                        I               64
Number of alpha electrons                  I               32
Number of beta electrons                   I               32
Number of basis functions                  I              157
Number of independent functions            I              157
Number of point charges in /Mol/           I                0
Number of translation vectors              I                0
Atomic numbers                             I   N=          17
           6           6           6           6           6           8
           8           8           1           1           1           1
           1           1           1           1           1
Nuclear charges                            R   N=          17
  6.00000000E+00  6.00000000E+00  6.00000000E+00  6.00000000E+00  6.00000000E+00
  8.00000000E+00  8.00000000E+00  8.00000000E+00  1.00000000E+00  1.00000000E+00
  1.00000000E+00  1.00000000E+00  1.00000000E+00  1.00000000E+00  1.00000000E+00
  1.00000000E+00  1.00000000E+00
Current cartesian coordinates              R   N=          51
 -3.38399067E+00  2.77368455E+00 -7.60049257E-01 -2.48541892E+00  1.95058318E-01
 -9.59660050E-02 -9.21853260E-02 -7.74860736E-01 -5.31743290E-02  2.35097998E+00
  7.13706956E-01 -6.57472192E-01  3.24586586E+00  2.30647569E+00  1.60189247E+00
 -4.41605175E+00 -1.50589338E+00  5.41658584E-01  3.29185118E-01 -3.14667085E+00
  5.13310565E-01  4.18644468E+00 -1.11388577E+00 -1.27407398E+00 -3.39696597E+00
 -3.03159244E+00  8.12716567E-01  1.89705417E+00  3.82956819E+00  2.05817568E+00
  3.42550817E+00  1.06943600E+00  3.26920396E+00  2.05750766E+00  2.00004733E+00
 -2.29138179E+00 -4.33450019E+00  3.75802514E+00  8.39580294E-01 -1.81437285E+00
  3.98809709E+00 -1.38813599E+00  3.25148639E+00 -2.64892307E+00 -6.67828868E-01
 -4.81072421E+00  2.72994667E+00 -2.30523417E+00  5.11687698E+00  3.15260636E+00
  1.21435889E+00
Number of symbols in /Mol/                 I                0
Force Field                                I                0
Atom Types                                 C   N=          17
                                                            
                                                            
                                                            
                        
Int Atom Types                             I   N=          17
           0           0           0           0           0           0
           0           0           0           0           0           0
           0           0           0           0           0
MM charges                                 R   N=          17
  0.00000000E+00  0.00000000E+00  0.00000000E+00  0.00000000E+00  0.00000000E+00
  0.00000000E+00  0.00000000E+00  0.00000000E+00  0.00000000E+00  0.00000000E+00
  0.00000000E+00  0.00000000E+00  0.00000000E+00  0.00000000E+00  0.00000000E+00
  0.00000000E+00  0.00000000E+00
Integer atomic weights                     I   N=          17
          12          12          12          12          12          16
          16          16           1           1           1           1
           1           1           1           1           1
Real atomic weights                        R   N=          17
  1.20000000E+01  1.20000000E+01  1.20000000E+01  1.20000000E+01  1.20000000E+01
  1.59949146E+01  1.59949146E+01  1.59949146E+01  1.00782504E+00  1.00782504E+00
  1.00782504E+00  1.00782504E+00  1.00782504E+00  1.00782504E+00  1.00782504E+00
  1.00782504E+00  1.00782504E+00
Atom fragment info                         I   N=          17
           0           0           0           0           0           0
           0           0           0           0           0           0
           0           0           0           0           0
Atom residue num                           I   N=          17
           0           0           0           0           0           0
           0           0           0           0           0           0
           0           0           0           0           0
Nuclear spins                              I   N=          17
           0           0           0           0           0           0
           0           0           1           1           1           1
           1           1           1           1           1
Nuclear ZEff                               R   N=          17
 -3.60000000E+00 -3.60000000E+00 -3.60000000E+00 -3.60000000E+00 -3.60000000E+00
 -5.60000000E+00 -5.60000000E+00 -5.60000000E+00 -1.00000000E+00 -1.00000000E+00
 -1.00000000E+00 -1.00000000E+00 -1.00000000E+00 -1.00000000E+00 -1.00000000E+00
 -1.00000000E+00 -1.00000000E+00
Nuclear ZNuc                               R   N=          17
  6.00000000E+00  6.00000000E+00  6.00000000E+00  6.00000000E+00  6.00000000E+00
  8.00000000E+00  8.00000000E+00  8.00000000E+00  1.00000000E+00  1.00000000E+00
  1.00000000E+00  1.00000000E+00  1.00000000E+00  1.00000000E+00  1.00000000E+00
  1.00000000E+00  1.00000000E+00
Nuclear QMom                               R   N=          17
  0.00000000E+00  0.00000000E+00  0.00000000E+00  0.00000000E+00  0.00000000E+00
  0.00000000E+00  0.00000000E+00  0.00000000E+00  0.00000000E+00  0.00000000E+00
  0.00000000E+00  0.00000000E+00  0.00000000E+00  0.00000000E+00  0.00000000E+00
  0.00000000E+00  0.00000000E+00
Nuclear GFac                               R   N=          17
  0.00000000E+00  0.00000000E+00  0.00000000E+00  0.00000000E+00  0.00000000E+00
  0.00000000E+00  0.00000000E+00  0.00000000E+00  2.79284600E+00  2.79284600E+00
  2.79284600E+00  2.79284600E+00  2.79284600E+00  2.79284600E+00  2.79284600E+00
  2.79284600E+00  2.79284600E+00
MicOpt                                     I   N=          17
          -1          -1          -1          -1          -1          -1
          -1          -1          -1          -1          -1          -1
          -1          -1          -1          -1          -1
Number of residues                         I                0
Number of secondary structures             I                0
Redundant internal dimensions              I   N=           4
          72          16          26          30
Redundant internal coordinate indices      I   N=         288
           1           2           0           0           1          13
           0           0           1          14           0           0
           1          16           0           0           2           3
           0           0           2           6           0           0
           3           4           0           0           3           7
           0           0           4           5           0           0
           4           8           0           0           4          12
           0           0           5          10           0           0
           5          11           0           0           5          17
           0           0           6           9           0           0
           8          15           0           0           2           1
          13           0           2           1          14           0
           2           1          16           0          13           1
          14           0          13           1          16           0
          14           1          16           0           1           2
           3           0           1           2           6           0
           3           2           6           0           2           3
           4           0           2           3           7           0
           4           3           7           0           3           4
           5           0           3           4           8           0
           3           4          12           0           5           4
           8           0           5           4          12           0
           8           4          12           0           4           5
          10           0           4           5          11           0
           4           5          17           0          10           5
          11           0          10           5          17           0
          11           5          17           0           2           6
           9           0           4           8          15           0
          13           1           2           3          13           1
           2           6          14           1           2           3
          14           1           2           6          16           1
           2           3          16           1           2           6
           1           2           3           4           1           2
           3           7           6           2           3           4
           6           2           3           7           1           2
           6           9           3           2           6           9
           2           3           4           5           2           3
           4           8           2           3           4          12
           7           3           4           5           7           3
           4           8           7           3           4          12
           3           4           5          10           3           4
           5          11           3           4           5          17
           8           4           5          10           8           4
           5          11           8           4           5          17
          12           4           5          10          12           4
           5          11          12           4           5          17
           3           4           8          15           5           4
           8          15          12           4           8          15
Redundant internal coordinates             R   N=          72
  2.81029376E+00  2.10504381E+00  2.08158374E+00  2.10358694E+00  2.58266164E+00
  2.65087626E+00  2.92404965E+00  2.47465985E+00  2.90559144E+00  2.66255960E+00
  2.10010907E+00  2.08501752E+00  2.08385848E+00  2.08968946E+00  1.85466059E+00
  1.89684466E+00  1.97563585E+00  1.94498078E+00  1.95127009E+00  1.87230868E+00
  1.83553450E+00  1.87749923E+00  2.27155526E+00  1.99624713E+00  2.01520317E+00
  2.18909502E+00  2.11942761E+00  1.97464138E+00  1.95594662E+00  1.84877940E+00
  1.93461271E+00  1.92200276E+00  1.88835879E+00  1.91408845E+00  1.95127592E+00
  1.90000678E+00  1.93211987E+00  1.89053178E+00  1.90076316E+00  1.88763043E+00
  1.73434292E+00  1.71295041E+00 -2.05568522E+00  1.10749906E+00  5.65470044E-02
 -3.06345402E+00  2.15835032E+00 -9.61650701E-01  3.10234275E-02 -3.10306341E+00
 -3.13235189E+00  1.67465795E-02  3.09792234E+00 -2.53915576E-02  1.40402396E+00
 -2.78276166E+00 -7.07657555E-01 -1.74453319E+00  3.51866498E-01  2.42697060E+00
 -1.14758314E+00  9.40337096E-01  3.01301875E+00  3.08241889E+00 -1.11284618E+00
  9.59835479E-01  9.90600132E-01  3.07852037E+00 -1.13198328E+00 -2.21069975E-01
  1.89734470E+00 -2.30968245E+00
ZRed-IntVec                                I   N=          72
           0           0           0           0           0           0
           0           0           0           0           0           0
           0           0           0           0           0           0
           0           0           0           0           0           0
           0           0           0           0           0           0
           0           0           0           0           0           0
           0           0           0           0           0           0
           0           0           0           0           0           0
           0           0           0           0           0           0
           0           0           0           0           0           0
           0           0           0           0           0           0
           0           0           0           0           0           0
ZRed-FPVec                                 R   N=          72
  0.00000000E+00  0.00000000E+00  0.00000000E+00  0.00000000E+00  0.00000000E+00
  0.00000000E+00  0.00000000E+00  0.00000000E+00  0.00000000E+00  0.00000000E+00
  0.00000000E+00  0.00000000E+00  0.00000000E+00  0.00000000E+00  0.00000000E+00
  0.00000000E+00  0.00000000E+00  0.00000000E+00  0.00000000E+00  0.00000000E+00
  0.00000000E+00  0.00000000E+00  0.00000000E+00  0.00000000E+00  0.00000000E+00
  0.00000000E+00  0.00000000E+00  0.00000000E+00  0.00000000E+00  0.00000000E+00
  0.00000000E+00  0.00000000E+00  0.00000000E+00  0.00000000E+00  0.00000000E+00
  0.00000000E+00  0.00000000E+00  0.00000000E+00  0.00000000E+00  0.00000000E+00
  0.00000000E+00  0.00000000E+00  0.00000000E+00  0.00000000E+00  0.00000000E+00
  0.00000000E+00  0.00000000E+00  0.00000000E+00  0.00000000E+00  0.00000000E+00
  0.00000000E+00  0.00000000E+00  0.00000000E+00  0.00000000E+00  0.00000000E+00
  0.00000000E+00  0.00000000E+00  0.00000000E+00  0.00000000E+00  0.00000000E+00
  0.00000000E+00  0.00000000E+00  0.00000000E+00  0.00000000E+00  0.00000000E+00
  0.00000000E+00  0.00000000E+00  0.00000000E+00  0.00000000E+00  0.00000000E+00
  0.00000000E+00  0.00000000E+00
ZRed-Constraint1                           R   N=          72
  2.81029376E+00  2.10504381E+00  2.08158374E+00  2.10358694E+00  2.58266164E+00
  2.65087626E+00  2.92404965E+00  2.47465985E+00  2.90559144E+00  2.66255960E+00
  2.10010907E+00  2.08501752E+00  2.08385848E+00  2.08968946E+00  1.85466059E+00
  1.89684466E+00  1.97563585E+00  1.94498078E+00  1.95127009E+00  1.87230868E+00
  1.83553450E+00  1.87749923E+00  2.27155526E+00  1.99624713E+00  2.01520317E+00
  2.18909502E+00  2.11942761E+00  1.97464138E+00  1.95594662E+00  1.84877940E+00
  1.93461271E+00  1.92200276E+00  1.88835879E+00  1.91408845E+00  1.95127592E+00
  1.90000678E+00  1.93211987E+00  1.89053178E+00  1.90076316E+00  1.88763043E+00
  1.73434292E+00  1.71295041E+00 -2.05568522E+00  1.10749906E+00  5.65470044E-02
 -3.06345402E+00  2.15835032E+00 -9.61650701E-01  3.10234275E-02 -3.10306341E+00
 -3.13235189E+00  1.67465795E-02  3.09792234E+00 -2.53915576E-02  1.40402396E+00
 -2.78276166E+00 -7.07657555E-01 -1.74453319E+00  3.51866498E-01  2.42697060E+00
 -1.14758314E+00  9.40337096E-01  3.01301875E+00  3.08241889E+00 -1.11284618E+00
  9.59835479E-01  9.90600132E-01  3.07852037E+00 -1.13198328E+00 -2.21069975E-01
  1.89734470E+00 -2.30968245E+00
ZRed-Constraint2                           R   N=          72
  2.72537734E+00  2.13415658E+00  2.07813071E+00  2.05980148E+00  2.66063397E+00
  2.71460948E+00  2.92554845E+00  2.42528809E+00  2.90940076E+00  2.70891629E+00
  2.12940569E+00  2.09904269E+00  2.06621007E+00  2.05980148E+00  1.81083101E+00
  1.82764262E+00  1.93292750E+00  2.09100210E+00  1.94246784E+00  1.97963745E+00
  1.80584972E+00  1.67354591E+00  2.27416492E+00  1.97713867E+00  1.96115404E+00
  2.08753196E+00  2.04371663E+00  2.13572825E+00  2.01681179E+00  1.98047149E+00
  1.72102058E+00  1.88025407E+00  2.01292024E+00  1.84474774E+00  1.97207168E+00
  1.92826654E+00  1.79527377E+00  1.93583459E+00  1.87838128E+00  1.94943916E+00
  2.00417807E+00  1.82247666E+00 -2.14646987E+00  5.62985323E-01  2.09486476E-01
  2.91894167E+00  2.13801584E+00 -1.43571428E+00 -1.50396026E-01  2.80332726E+00
 -2.86294131E+00  9.07819776E-02  1.47941726E+00 -2.01483849E+00  1.50991082E+00
 -2.58907574E+00 -6.45684932E-01 -1.43353463E+00  7.50664123E-01  2.69405493E+00
 -8.57427271E-01  1.32284817E+00 -2.87740120E+00 -3.09238465E+00 -9.12109205E-01
  1.17082673E+00  1.13569351E+00 -2.96721635E+00 -8.84280417E-01 -2.65052948E+00
 -3.94846649E-01  1.76605272E+00
SymInf integers                            I   N=          26
           1           1           1           1           1           0
           0           0           0           0           0           0
           0           0           0           0           0           0
           0           0           0           0           0           0
           0           0
RotTr to input orientation                 R   N=          12
 -6.26833582E-01  5.91772449E-01 -5.06838267E-01 -3.40394713E-01 -7.93128121E-01
 -5.05053683E-01 -7.00864537E-01 -1.44059543E-01  6.98595555E-01  1.52904230E+02
  1.53465873E+02  1.54014032E+02
Number of contracted shells                I               75
Number of primitive shells                 I              141
Pure/Cartesian d shells                    I                0
Pure/Cartesian f shells                    I                0
Highest angular momentum                   I                2
Largest degree of contraction              I                5
Shell types                                I   N=          75
           0           0           0           1           1          -2
           0           0           0           1           1          -2
           0           0           0           1           1          -2
           0           0           0           1           1          -2
           0           0           0           1           1          -2
           0           0           0           1           1          -2
           0           0           0           1           1          -2
           0           0           0           1           1          -2
           0           0           1           0           0           1
           0           0           1           0           0           1
           0           0           1           0           0           1
           0           0           1           0           0           1
           0           0           1
Number of primitives per shell             I   N=          75
           5           1           1           3           1           1
           5           1           1           3           1           1
           5           1           1           3           1           1
           5           1           1           3           1           1
           5           1           1           3           1           1
           5           1           1           3           1           1
           5           1           1           3           1           1
           5           1           1           3           1           1
           3           1           1           3           1           1
           3           1           1           3           1           1
           3           1           1           3           1           1
           3           1           1           3           1           1
           3           1           1
Shell to atom map                          I   N=          75
           1           1           1           1           1           1
           2           2           2           2           2           2
           3           3           3           3           3           3
           4           4           4           4           4           4
           5           5           5           5           5           5
           6           6           6           6           6           6
           7           7           7           7           7           7
           8           8           8           8           8           8
           9           9           9          10          10          10
          11          11          11          12          12          12
          13          13          13          14          14          14
          15          15          15          16          16          16
          17          17          17
Primitive exponents                        R   N=         141
  1.23840169E+03  1.86290050E+02  4.22511763E+01  1.16765579E+01  3.59305065E+00
  4.02451474E-01  1.30901827E-01  9.46809706E+00  2.01035451E+00  5.47710047E-01
  1.52686138E-01  8.00000000E-01  1.23840169E+03  1.86290050E+02  4.22511763E+01
  1.16765579E+01  3.59305065E+00  4.02451474E-01  1.30901827E-01  9.46809706E+00
  2.01035451E+00  5.47710047E-01  1.52686138E-01  8.00000000E-01  1.23840169E+03
  1.86290050E+02  4.22511763E+01  1.16765579E+01  3.59305065E+00  4.02451474E-01
  1.30901827E-01  9.46809706E+00  2.01035451E+00  5.47710047E-01  1.52686138E-01
  8.00000000E-01  1.23840169E+03  1.86290050E+02  4.22511763E+01  1.16765579E+01
  3.59305065E+00  4.02451474E-01  1.30901827E-01  9.46809706E+00  2.01035451E+00
  5.47710047E-01  1.52686138E-01  8.00000000E-01  1.23840169E+03  1.86290050E+02
  4.22511763E+01  1.16765579E+01  3.59305065E+00  4.02451474E-01  1.30901827E-01
  9.46809706E+00  2.01035451E+00  5.47710047E-01  1.52686138E-01  8.00000000E-01
  2.26617678E+03  3.40870102E+02  7.73631352E+01  2.14796449E+01  6.65894331E+00
  8.09759757E-01  2.55307722E-01  1.77215043E+01  3.86355054E+00  1.04809209E+00
  2.76415444E-01  1.20000000E+00  2.26617678E+03  3.40870102E+02  7.73631352E+01
  2.14796449E+01  6.65894331E+00  8.09759757E-01  2.55307722E-01  1.77215043E+01
  3.86355054E+00  1.04809209E+00  2.76415444E-01  1.20000000E+00  2.26617678E+03
  3.40870102E+02  7.73631352E+01  2.14796449E+01  6.65894331E+00  8.09759757E-01
  2.55307722E-01  1.77215043E+01  3.86355054E+00  1.04809209E+00  2.76415444E-01
  1.20000000E+00  1.30107010E+01  1.96225720E+00  4.44537960E-01  1.21949620E-01
  8.00000000E-01  1.30107010E+01  1.96225720E+00  4.44537960E-01  1.21949620E-01
  8.00000000E-01  1.30107010E+01  1.96225720E+00  4.44537960E-01  1.21949620E-01
  8.00000000E-01  1.30107010E+01  1.96225720E+00  4.44537960E-01  1.21949620E-01
  8.00000000E-01  1.30107010E+01  1.96225720E+00  4.44537960E-01  1.21949620E-01
  8.00000000E-01  1.30107010E+01  1.96225720E+00  4.44537960E-01  1.21949620E-01
  8.00000000E-01  1.30107010E+01  1.96225720E+00  4.44537960E-01  1.21949620E-01
  8.00000000E-01  1.30107010E+01  1.96225720E+00  4.44537960E-01  1.21949620E-01
  8.00000000E-01  1.30107010E+01  1.96225720E+00  4.44537960E-01  1.21949620E-01
  8.00000000E-01
Contraction coefficients                   R   N=         141
  5.51736505E-03  4.10888286E-02  1.82253821E-01  4.68284594E-01  4.45758173E-01
  1.00000000E+00  1.00000000E+00  5.68883320E-02  3.12940593E-01  7.60650165E-01
  1.00000000E+00  1.00000000E+00  5.51736505E-03  4.10888286E-02  1.82253821E-01
  4.68284594E-01  4.45758173E-01  1.00000000E+00  1.00000000E+00  5.68883320E-02
  3.12940593E-01  7.60650165E-01  1.00000000E+00  1.00000000E+00  5.51736505E-03
  4.10888286E-02  1.82253821E-01  4.68284594E-01  4.45758173E-01  1.00000000E+00
  1.00000000E+00  5.68883320E-02  3.12940593E-01  7.60650165E-01  1.00000000E+00
  1.00000000E+00  5.51736505E-03  4.10888286E-02  1.82253821E-01  4.68284594E-01
  4.45758173E-01  1.00000000E+00  1.00000000E+00  5.68883320E-02  3.12940593E-01
  7.60650165E-01  1.00000000E+00  1.00000000E+00  5.51736505E-03  4.10888286E-02
  1.82253821E-01  4.68284594E-01  4.45758173E-01  1.00000000E+00  1.00000000E+00
  5.68883320E-02  3.12940593E-01  7.60650165E-01  1.00000000E+00  1.00000000E+00
 -5.38935039E-03 -4.02347214E-02 -1.80081842E-01 -4.68288577E-01 -4.46926172E-01
  1.00000000E+00  1.00000000E+00  6.26302488E-02  3.33311385E-01  7.41486383E-01
  1.00000000E+00  1.00000000E+00 -5.38935039E-03 -4.02347214E-02 -1.80081842E-01
 -4.68288577E-01 -4.46926172E-01  1.00000000E+00  1.00000000E+00  6.26302488E-02
  3.33311385E-01  7.41486383E-01  1.00000000E+00  1.00000000E+00 -5.38935039E-03
 -4.02347214E-02 -1.80081842E-01 -4.68288577E-01 -4.46926172E-01  1.00000000E+00
  1.00000000E+00  6.26302488E-02  3.33311385E-01  7.41486383E-01  1.00000000E+00
  1.00000000E+00  3.34854848E-02  2.34721871E-01  8.13770285E-01  1.00000000E+00
  1.00000000E+00  3.34854848E-02  2.34721871E-01  8.13770285E-01  1.00000000E+00
  1.00000000E+00  3.34854848E-02  2.34721871E-01  8.13770285E-01  1.00000000E+00
  1.00000000E+00  3.34854848E-02  2.34721871E-01  8.13770285E-01  1.00000000E+00
  1.00000000E+00  3.34854848E-02  2.34721871E-01  8.13770285E-01  1.00000000E+00
  1.00000000E+00  3.34854848E-02  2.34721871E-01  8.13770285E-01  1.00000000E+00
  1.00000000E+00  3.34854848E-02  2.34721871E-01  8.13770285E-01  1.00000000E+00
  1.00000000E+00  3.34854848E-02  2.34721871E-01  8.13770285E-01  1.00000000E+00
  1.00000000E+00  3.34854848E-02  2.34721871E-01  8.13770285E-01  1.00000000E+00
  1.00000000E+00
Coordinates of each shell                  R   N=         225
 -3.38399067E+00  2.77368455E+00 -7.60049257E-01 -3.38399067E+00  2.77368455E+00
 -7.60049257E-01 -3.38399067E+00  2.77368455E+00 -7.60049257E-01 -3.38399067E+00
  2.77368455E+00 -7.60049257E-01 -3.38399067E+00  2.77368455E+00 -7.60049257E-01
 -3.38399067E+00  2.77368455E+00 -7.60049257E-01 -2.48541892E+00  1.95058318E-01
 -9.59660050E-02 -2.48541892E+00  1.95058318E-01 -9.59660050E-02 -2.48541892E+00
  1.95058318E-01 -9.59660050E-02 -2.48541892E+00  1.95058318E-01 -9.59660050E-02
 -2.48541892E+00  1.95058318E-01 -9.59660050E-02 -2.48541892E+00  1.95058318E-01
 -9.59660050E-02 -9.21853260E-02 -7.74860736E-01 -5.31743290E-02 -9.21853260E-02
 -7.74860736E-01 -5.31743290E-02 -9.21853260E-02 -7.74860736E-01 -5.31743290E-02
 -9.21853260E-02 -7.74860736E-01 -5.31743290E-02 -9.21853260E-02 -7.74860736E-01
 -5.31743290E-02 -9.21853260E-02 -7.74860736E-01 -5.31743290E-02  2.35097998E+00
  7.13706956E-01 -6.57472192E-01  2.35097998E+00  7.13706956E-01 -6.57472192E-01
  2.35097998E+00  7.13706956E-01 -6.57472192E-01  2.35097998E+00  7.13706956E-01
 -6.57472192E-01  2.35097998E+00  7.13706956E-01 -6.57472192E-01  2.35097998E+00
  7.13706956E-01 -6.57472192E-01  3.24586586E+00  2.30647569E+00  1.60189247E+00
  3.24586586E+00  2.30647569E+00  1.60189247E+00  3.24586586E+00  2.30647569E+00
  1.60189247E+00  3.24586586E+00  2.30647569E+00  1.60189247E+00  3.24586586E+00
  2.30647569E+00  1.60189247E+00  3.24586586E+00  2.30647569E+00  1.60189247E+00
 -4.41605175E+00 -1.50589338E+00  5.41658584E-01 -4.41605175E+00 -1.50589338E+00
  5.41658584E-01 -4.41605175E+00 -1.50589338E+00  5.41658584E-01 -4.41605175E+00
 -1.50589338E+00  5.41658584E-01 -4.41605175E+00 -1.50589338E+00  5.41658584E-01
 -4.41605175E+00 -1.50589338E+00  5.41658584E-01  3.29185118E-01 -3.14667085E+00
  5.13310565E-01  3.29185118E-01 -3.14667085E+00  5.13310565E-01  3.29185118E-01
 -3.14667085E+00  5.13310565E-01  3.29185118E-01 -3.14667085E+00  5.13310565E-01
  3.29185118E-01 -3.14667085E+00  5.13310565E-01  3.29185118E-01 -3.14667085E+00
  5.13310565E-01  4.18644468E+00 -1.11388577E+00 -1.27407398E+00  4.18644468E+00
 -1.11388577E+00 -1.27407398E+00  4.18644468E+00 -1.11388577E+00 -1.27407398E+00
  4.18644468E+00 -1.11388577E+00 -1.27407398E+00  4.18644468E+00 -1.11388577E+00
 -1.27407398E+00  4.18644468E+00 -1.11388577E+00 -1.27407398E+00 -3.39696597E+00
 -3.03159244E+00  8.12716567E-01 -3.39696597E+00 -3.03159244E+00  8.12716567E-01
 -3.39696597E+00 -3.03159244E+00  8.12716567E-01  1.89705417E+00  3.82956819E+00
  2.05817568E+00  1.89705417E+00  3.82956819E+00  2.05817568E+00  1.89705417E+00
  3.82956819E+00  2.05817568E+00  3.42550817E+00  1.06943600E+00  3.26920396E+00
  3.42550817E+00  1.06943600E+00  3.26920396E+00  3.42550817E+00  1.06943600E+00
  3.26920396E+00  2.05750766E+00  2.00004733E+00 -2.29138179E+00  2.05750766E+00
  2.00004733E+00 -2.29138179E+00  2.05750766E+00  2.00004733E+00 -2.29138179E+00
 -4.33450019E+00  3.75802514E+00  8.39580294E-01 -4.33450019E+00  3.75802514E+00
  8.39580294E-01 -4.33450019E+00  3.75802514E+00  8.39580294E-01 -1.81437285E+00
  3.98809709E+00 -1.38813599E+00 -1.81437285E+00  3.98809709E+00 -1.38813599E+00
 -1.81437285E+00  3.98809709E+00 -1.38813599E+00  3.25148639E+00 -2.64892307E+00
 -6.67828868E-01  3.25148639E+00 -2.64892307E+00 -6.67828868E-01  3.25148639E+00
 -2.64892307E+00 -6.67828868E-01 -4.81072421E+00  2.72994667E+00 -2.30523417E+00
 -4.81072421E+00  2.72994667E+00 -2.30523417E+00 -4.81072421E+00  2.72994667E+00
 -2.30523417E+00  5.11687698E+00  3.15260636E+00  1.21435889E+00  5.11687698E+00
  3.15260636E+00  1.21435889E+00  5.11687698E+00  3.15260636E+00  1.21435889E+00
Num ILSW                                   I              100
ILSW                                       I   N=         100
           0           0           0           0           2           0
           0           0           0           0         402          -1
           5           0           0           0           2           0
           0           0           0           0           1           0
           1           0           0           0           0           0
           0           0      100000           0          -1           0
           0           0           0           0           0           0
           0           0           0           1           0           0
           0 -2000000000           1           0           0           0
           0           0           4          52           0           0
           0           0           5           0           0           0
           0           0           0          17           0           1
           0           0           0           0           0           0
           0           0           0           0           0           0
           0           0           0           0           0           0