 Entering Gaussian System, Link 0=/opt/easybuild/software/Gaussian/16-AVX/g16/g16
 Input=inp.dat
 Output=/home/ccastillo/rubisco/wo_o2/equil_qmmm/FREQ/broken_system/eno/lig.log
 Initial command:
 /opt/easybuild/software/Gaussian/16-AVX/g16/l1.exe "/scratch/307607/Gau-433817.inp" -scrdir="/scratch/307607/"
 Entering Link 1 = /opt/easybuild/software/Gaussian/16-AVX/g16/l1.exe PID=    433818.
  
 Copyright (c) 1988-2017, Gaussian, Inc.  All Rights Reserved.
  
 This is part of the Gaussian(R) 16 program.  It is based on
 the Gaussian(R) 09 system (copyright 2009, Gaussian, Inc.),
 the Gaussian(R) 03 system (copyright 2003, Gaussian, Inc.),
 the Gaussian(R) 98 system (copyright 1998, Gaussian, Inc.),
 the Gaussian(R) 94 system (copyright 1995, Gaussian, Inc.),
 the Gaussian 92(TM) system (copyright 1992, Gaussian, Inc.),
 the Gaussian 90(TM) system (copyright 1990, Gaussian, Inc.),
 the Gaussian 88(TM) system (copyright 1988, Gaussian, Inc.),
 the Gaussian 86(TM) system (copyright 1986, Carnegie Mellon
 University), and the Gaussian 82(TM) system (copyright 1983,
 Carnegie Mellon University). Gaussian is a federally registered
 trademark of Gaussian, Inc.
  
 This software contains proprietary and confidential information,
 including trade secrets, belonging to Gaussian, Inc.
  
 This software is provided under written license and may be
 used, copied, transmitted, or stored only in accord with that
 written license.
  
 The following legend is applicable only to US Government
 contracts under FAR:
  
                    RESTRICTED RIGHTS LEGEND
  
 Use, reproduction and disclosure by the US Government is
 subject to restrictions as set forth in subparagraphs (a)
 and (c) of the Commercial Computer Software - Restricted
 Rights clause in FAR 52.227-19.
  
 Gaussian, Inc.
 340 Quinnipiac St., Bldg. 40, Wallingford CT 06492
  
  
 ---------------------------------------------------------------
 Warning -- This program may not be used in any manner that
 competes with the business of Gaussian, Inc. or will provide
 assistance to any competitor of Gaussian, Inc.  The licensee
 of this program is prohibited from giving any competitor of
 Gaussian, Inc. access to this program.  By using this program,
 the user acknowledges that Gaussian, Inc. is engaged in the
 business of creating and licensing software in the field of
 computational chemistry and represents and warrants to the
 licensee that it is not a competitor of Gaussian, Inc. and that
 it will not use this program in any manner prohibited above.
 ---------------------------------------------------------------
  

 Cite this work as:
 Gaussian 16, Revision B.01,
 M. J. Frisch, G. W. Trucks, H. B. Schlegel, G. E. Scuseria, 
 M. A. Robb, J. R. Cheeseman, G. Scalmani, V. Barone, 
 G. A. Petersson, H. Nakatsuji, X. Li, M. Caricato, A. V. Marenich, 
 J. Bloino, B. G. Janesko, R. Gomperts, B. Mennucci, H. P. Hratchian, 
 J. V. Ortiz, A. F. Izmaylov, J. L. Sonnenberg, D. Williams-Young, 
 F. Ding, F. Lipparini, F. Egidi, J. Goings, B. Peng, A. Petrone, 
 T. Henderson, D. Ranasinghe, V. G. Zakrzewski, J. Gao, N. Rega, 
 G. Zheng, W. Liang, M. Hada, M. Ehara, K. Toyota, R. Fukuda, 
 J. Hasegawa, M. Ishida, T. Nakajima, Y. Honda, O. Kitao, H. Nakai, 
 T. Vreven, K. Throssell, J. A. Montgomery, Jr., J. E. Peralta, 
 F. Ogliaro, M. J. Bearpark, J. J. Heyd, E. N. Brothers, K. N. Kudin, 
 V. N. Staroverov, T. A. Keith, R. Kobayashi, J. Normand, 
 K. Raghavachari, A. P. Rendell, J. C. Burant, S. S. Iyengar, 
 J. Tomasi, M. Cossi, J. M. Millam, M. Klene, C. Adamo, R. Cammi, 
 J. W. Ochterski, R. L. Martin, K. Morokuma, O. Farkas, 
 J. B. Foresman, and D. J. Fox, Gaussian, Inc., Wallingford CT, 2016.
 
 ******************************************
 Gaussian 16:  ES64L-G16RevB.01 20-Dec-2017
                24-Oct-2024 
 ******************************************
 %chk=gau_job.chk
 %NProcShared=8
 Will use up to    8 processors via shared memory.
 %mem=30GB
 -------------------------------------------
 #P b3lyp/def2svp opt=(calcfc, noeigen) Freq
 -------------------------------------------
 1/10=4,11=1,18=20,19=15,26=3,38=1/1,3;
 2/9=110,12=2,17=6,18=5,40=1/2;
 3/5=43,7=101,11=2,25=1,30=1,71=2,74=-5,140=1/1,2,3;
 4//1;
 5/5=2,38=5/2;
 8/6=4,10=90,11=11/1;
 11/6=1,8=1,9=11,15=111,16=1/1,2,10;
 10/6=1,13=1/2;
 6/7=2,8=2,9=2,10=2,28=1/1;
 7/10=1,18=20,25=1/1,2,3,16;
 1/10=4,11=1,18=20,19=15,26=3/3(2);
 2/9=110/2;
 99//99;
 2/9=110/2;
 3/5=43,7=101,11=2,25=1,30=1,71=1,74=-5/1,2,3;
 4/5=5,16=3,69=1/1;
 5/5=2,38=5/2;
 7//1,2,3,16;
 1/11=1,18=20,19=15,26=3/3(-5);
 2/9=110/2;
 6/7=2,8=2,9=2,10=2,19=2,28=1/1;
 99/9=1/99;
 Leave Link    1 at Thu Oct 24 13:31:57 2024, MaxMem=  4026531840 cpu:               0.2 elap:               0.0
 (Enter /opt/easybuild/software/Gaussian/16-AVX/g16/l101.exe)
 ----------------------------------------------------------------------
 Gaussian run using SANDER external interface, route from template gau_
 job.tpl
 ----------------------------------------------------------------------
 Symbolic Z-matrix:
 Charge = -1 Multiplicity = 1
 C                     81.76993   79.17499   81.4027 
 C                     81.78205   80.40256   82.15958 
 C                     81.10262   81.61568   81.93813 
 C                     80.32921   81.82848   80.61402 
 C                     78.87969   81.30977   80.60082 
 O                     82.12886   80.21455   83.54086 
 O                     80.98213   82.40944   82.93941 
 O                     80.30824   83.19394   80.17814 
 H                     83.06993   80.19571   83.72052 
 H                     78.7885   80.26739   80.97354 
 H                     78.22708   81.98364   81.16251 
 H                     81.03784   81.29699   79.91752 
 H                     81.4537   78.30729   82.05272 
 H                     81.3206   79.15598   80.39917 
 H                     79.48789   83.27261   79.67195 
 H                     82.77395   78.89841   81.0809 
 H                     78.63401   81.30321   79.53889 
 
 ITRead=  0  0  0  0  0  0  0  0  0  0  0  0  0  0  0  0  0
 MicOpt= -1 -1 -1 -1 -1 -1 -1 -1 -1 -1 -1 -1 -1 -1 -1 -1 -1
 NAtoms=     17 NQM=       17 NQMF=       0 NMMI=      0 NMMIF=      0
                NMic=       0 NMicF=      0.
                    Isotopes and Nuclear Properties:
 (Nuclear quadrupole moments (NQMom) in fm**2, nuclear magnetic moments (NMagM)
  in nuclear magnetons)

  Atom         1           2           3           4           5           6           7           8           9          10
 IAtWgt=          12          12          12          12          12          16          16          16           1           1
 AtmWgt=  12.0000000  12.0000000  12.0000000  12.0000000  12.0000000  15.9949146  15.9949146  15.9949146   1.0078250   1.0078250
 NucSpn=           0           0           0           0           0           0           0           0           1           1
 AtZEff=  -0.0000000  -0.0000000  -0.0000000  -0.0000000  -0.0000000  -0.0000000  -0.0000000  -0.0000000  -0.0000000  -0.0000000
 NQMom=    0.0000000   0.0000000   0.0000000   0.0000000   0.0000000   0.0000000   0.0000000   0.0000000   0.0000000   0.0000000
 NMagM=    0.0000000   0.0000000   0.0000000   0.0000000   0.0000000   0.0000000   0.0000000   0.0000000   2.7928460   2.7928460
 AtZNuc=   6.0000000   6.0000000   6.0000000   6.0000000   6.0000000   8.0000000   8.0000000   8.0000000   1.0000000   1.0000000

  Atom        11          12          13          14          15          16          17
 IAtWgt=           1           1           1           1           1           1           1
 AtmWgt=   1.0078250   1.0078250   1.0078250   1.0078250   1.0078250   1.0078250   1.0078250
 NucSpn=           1           1           1           1           1           1           1
 AtZEff=  -0.0000000  -0.0000000  -0.0000000  -0.0000000  -0.0000000  -0.0000000  -0.0000000
 NQMom=    0.0000000   0.0000000   0.0000000   0.0000000   0.0000000   0.0000000   0.0000000
 NMagM=    2.7928460   2.7928460   2.7928460   2.7928460   2.7928460   2.7928460   2.7928460
 AtZNuc=   1.0000000   1.0000000   1.0000000   1.0000000   1.0000000   1.0000000   1.0000000
 Leave Link  101 at Thu Oct 24 13:31:58 2024, MaxMem=  4026531840 cpu:               3.1 elap:               0.4
 (Enter /opt/easybuild/software/Gaussian/16-AVX/g16/l103.exe)

 GradGradGradGradGradGradGradGradGradGradGradGradGradGradGradGradGradGrad
 Berny optimization.
 Initialization pass.
                           ----------------------------
                           !    Initial Parameters    !
                           ! (Angstroms and Degrees)  !
 --------------------------                            --------------------------
 ! Name  Definition              Value          Derivative Info.                !
 --------------------------------------------------------------------------------
 ! R1    R(1,2)                  1.4422         calculate D2E/DX2 analytically  !
 ! R2    R(1,13)                 1.1293         calculate D2E/DX2 analytically  !
 ! R3    R(1,14)                 1.0997         calculate D2E/DX2 analytically  !
 ! R4    R(1,16)                 1.09           calculate D2E/DX2 analytically  !
 ! R5    R(2,3)                  1.4079         calculate D2E/DX2 analytically  !
 ! R6    R(2,6)                  1.4365         calculate D2E/DX2 analytically  !
 ! R7    R(3,4)                  1.5481         calculate D2E/DX2 analytically  !
 ! R8    R(3,7)                  1.2834         calculate D2E/DX2 analytically  !
 ! R9    R(4,5)                  1.5396         calculate D2E/DX2 analytically  !
 ! R10   R(4,8)                  1.4335         calculate D2E/DX2 analytically  !
 ! R11   R(4,12)                 1.1268         calculate D2E/DX2 analytically  !
 ! R12   R(5,10)                 1.1108         calculate D2E/DX2 analytically  !
 ! R13   R(5,11)                 1.0934         calculate D2E/DX2 analytically  !
 ! R14   R(5,17)                 1.09           calculate D2E/DX2 analytically  !
 ! R15   R(6,9)                  0.9583         calculate D2E/DX2 analytically  !
 ! R16   R(8,15)                 0.9671         calculate D2E/DX2 analytically  !
 ! A1    A(2,1,13)             110.7486         calculate D2E/DX2 analytically  !
 ! A2    A(2,1,14)             119.8056         calculate D2E/DX2 analytically  !
 ! A3    A(2,1,16)             111.2952         calculate D2E/DX2 analytically  !
 ! A4    A(13,1,14)            113.4249         calculate D2E/DX2 analytically  !
 ! A5    A(13,1,16)            103.4676         calculate D2E/DX2 analytically  !
 ! A6    A(14,1,16)             95.8871         calculate D2E/DX2 analytically  !
 ! A7    A(1,2,3)              130.3001         calculate D2E/DX2 analytically  !
 ! A8    A(1,2,6)              113.2817         calculate D2E/DX2 analytically  !
 ! A9    A(3,2,6)              112.3658         calculate D2E/DX2 analytically  !
 ! A10   A(2,3,4)              119.6068         calculate D2E/DX2 analytically  !
 ! A11   A(2,3,7)              117.0963         calculate D2E/DX2 analytically  !
 ! A12   A(4,3,7)              122.3682         calculate D2E/DX2 analytically  !
 ! A13   A(3,4,5)              115.5548         calculate D2E/DX2 analytically  !
 ! A14   A(3,4,8)              113.4727         calculate D2E/DX2 analytically  !
 ! A15   A(3,4,12)              98.6072         calculate D2E/DX2 analytically  !
 ! A16   A(5,4,8)              107.7306         calculate D2E/DX2 analytically  !
 ! A17   A(5,4,12)             115.3318         calculate D2E/DX2 analytically  !
 ! A18   A(8,4,12)             105.6963         calculate D2E/DX2 analytically  !
 ! A19   A(4,5,10)             112.9914         calculate D2E/DX2 analytically  !
 ! A20   A(4,5,11)             110.4815         calculate D2E/DX2 analytically  !
 ! A21   A(4,5,17)             102.8616         calculate D2E/DX2 analytically  !
 ! A22   A(10,5,11)            110.9152         calculate D2E/DX2 analytically  !
 ! A23   A(10,5,17)            107.6233         calculate D2E/DX2 analytically  !
 ! A24   A(11,5,17)            111.6946         calculate D2E/DX2 analytically  !
 ! A25   A(2,6,9)              114.8309         calculate D2E/DX2 analytically  !
 ! A26   A(4,8,15)             104.4202         calculate D2E/DX2 analytically  !
 ! D1    D(13,1,2,3)          -122.9837         calculate D2E/DX2 analytically  !
 ! D2    D(13,1,2,6)            32.2567         calculate D2E/DX2 analytically  !
 ! D3    D(14,1,2,3)            12.0027         calculate D2E/DX2 analytically  !
 ! D4    D(14,1,2,6)           167.243          calculate D2E/DX2 analytically  !
 ! D5    D(16,1,2,3)           122.4993         calculate D2E/DX2 analytically  !
 ! D6    D(16,1,2,6)           -82.2604         calculate D2E/DX2 analytically  !
 ! D7    D(1,2,3,4)             -8.6171         calculate D2E/DX2 analytically  !
 ! D8    D(1,2,3,7)            160.6188         calculate D2E/DX2 analytically  !
 ! D9    D(6,2,3,4)           -164.0345         calculate D2E/DX2 analytically  !
 ! D10   D(6,2,3,7)              5.2014         calculate D2E/DX2 analytically  !
 ! D11   D(1,2,6,9)             84.7644         calculate D2E/DX2 analytically  !
 ! D12   D(3,2,6,9)           -115.4417         calculate D2E/DX2 analytically  !
 ! D13   D(2,3,4,5)             86.5115         calculate D2E/DX2 analytically  !
 ! D14   D(2,3,4,8)           -148.3431         calculate D2E/DX2 analytically  !
 ! D15   D(2,3,4,12)           -36.995          calculate D2E/DX2 analytically  !
 ! D16   D(7,3,4,5)            -82.1355         calculate D2E/DX2 analytically  !
 ! D17   D(7,3,4,8)             43.0099         calculate D2E/DX2 analytically  !
 ! D18   D(7,3,4,12)           154.358          calculate D2E/DX2 analytically  !
 ! D19   D(3,4,5,10)           -49.127          calculate D2E/DX2 analytically  !
 ! D20   D(3,4,5,11)            75.7936         calculate D2E/DX2 analytically  !
 ! D21   D(3,4,5,17)          -164.8629         calculate D2E/DX2 analytically  !
 ! D22   D(8,4,5,10)          -177.1806         calculate D2E/DX2 analytically  !
 ! D23   D(8,4,5,11)           -52.26           calculate D2E/DX2 analytically  !
 ! D24   D(8,4,5,17)            67.0834         calculate D2E/DX2 analytically  !
 ! D25   D(12,4,5,10)           65.0704         calculate D2E/DX2 analytically  !
 ! D26   D(12,4,5,11)         -170.009          calculate D2E/DX2 analytically  !
 ! D27   D(12,4,5,17)          -50.6655         calculate D2E/DX2 analytically  !
 ! D28   D(3,4,8,15)          -151.8642         calculate D2E/DX2 analytically  !
 ! D29   D(5,4,8,15)           -22.623          calculate D2E/DX2 analytically  !
 ! D30   D(12,4,8,15)          101.1874         calculate D2E/DX2 analytically  !
 --------------------------------------------------------------------------------
 Trust Radius=3.00D-01 FncErr=1.00D-07 GrdErr=1.00D-06 EigMax=2.50D+02 EigMin=1.00D-04
 Number of steps in this run=     82 maximum allowed number of steps=    102.
 GradGradGradGradGradGradGradGradGradGradGradGradGradGradGradGradGradGrad

 Leave Link  103 at Thu Oct 24 13:31:59 2024, MaxMem=  4026531840 cpu:               0.1 elap:               0.2
 (Enter /opt/easybuild/software/Gaussian/16-AVX/g16/l202.exe)
                          Input orientation:                          
 ---------------------------------------------------------------------
 Center     Atomic      Atomic             Coordinates (Angstroms)
 Number     Number       Type             X           Y           Z
 ---------------------------------------------------------------------
      1          6           0       81.769930   79.174987   81.402702
      2          6           0       81.782053   80.402565   82.159583
      3          6           0       81.102625   81.615680   81.938129
      4          6           0       80.329210   81.828483   80.614021
      5          6           0       78.879694   81.309772   80.600818
      6          8           0       82.128862   80.214546   83.540862
      7          8           0       80.982134   82.409443   82.939407
      8          8           0       80.308237   83.193943   80.178138
      9          1           0       83.069933   80.195705   83.720516
     10          1           0       78.788500   80.267391   80.973544
     11          1           0       78.227075   81.983642   81.162505
     12          1           0       81.037836   81.296989   79.917518
     13          1           0       81.453699   78.307289   82.052718
     14          1           0       81.320596   79.155983   80.399169
     15          1           0       79.487894   83.272609   79.671954
     16          1           0       82.773947   78.898411   81.080903
     17          1           0       78.634008   81.303205   79.538888
 ---------------------------------------------------------------------
                    Distance matrix (angstroms):
                    1          2          3          4          5
     1  C    0.000000
     2  C    1.442208   0.000000
     3  C    2.586302   1.407947   0.000000
     4  C    3.120694   2.555926   1.548134   0.000000
     5  C    3.681547   3.417084   2.612164   1.539589   0.000000
     6  O    2.404422   1.436509   2.363281   3.796043   4.516689
     7  O    3.666577   2.296857   1.283407   2.484199   3.331445
     8  O    4.448382   3.726936   2.493899   1.433497   2.401977
     9  H    2.846776   2.034191   3.010570   4.452846   5.341513
    10  H    3.204130   3.222782   2.846662   2.222624   1.110766
    11  H    4.527478   4.016446   3.000962   2.178045   1.093391
    12  H    2.691584   2.526007   2.046614   1.126833   2.263767
    13  H    1.129347   2.123539   3.328940   3.966502   4.212888
    14  H    1.099699   2.205894   2.909643   2.858543   3.261515
    15  H    4.999368   4.437186   3.238567   1.918542   2.255089
    16  H    1.090000   2.099972   3.303287   3.844482   4.605470
    17  H    4.223401   4.193970   3.456597   2.074979   1.090000
                    6          7          8          9         10
     6  O    0.000000
     7  O    2.548393   0.000000
     8  O    4.847618   2.948590   0.000000
     9  H    0.958251   3.141603   5.400447   0.000000
    10  H    4.213305   3.642119   3.392194   5.087402   0.000000
    11  H    4.900023   3.305908   2.600969   5.761372   1.815605
    12  H    3.935816   3.220631   2.049066   4.450285   2.689754
    13  H    2.511583   4.223299   5.357753   2.993305   3.479929
    14  H    3.412343   4.141541   4.168795   3.895195   2.824296
    15  H    5.594186   3.695139   0.967147   6.220063   3.348825
    16  H    2.863520   4.357978   5.034511   2.956034   4.215379
    17  H    5.423558   4.277965   2.605104   6.195966   1.776237
                   11         12         13         14         15
    11  H    0.000000
    12  H    3.149899   0.000000
    13  H    4.971836   3.697341   0.000000
    14  H    4.260072   2.212657   1.863390   0.000000
    15  H    2.339411   2.523033   5.846951   4.564456   0.000000
    16  H    5.495394   3.181308   1.742672   1.625833   5.649504
    17  H    1.806854   2.433472   4.821360   3.545195   2.150669
                   16         17
    16  H    0.000000
    17  H    5.029904   0.000000
 Stoichiometry    C5H9O3(1-)
 Framework group  C1[X(C5H9O3)]
 Deg. of freedom    45
 Full point group                 C1      NOp   1
 Largest Abelian subgroup         C1      NOp   1
 Largest concise Abelian subgroup C1      NOp   1
                         Standard orientation:                         
 ---------------------------------------------------------------------
 Center     Atomic      Atomic             Coordinates (Angstroms)
 Number     Number       Type             X           Y           Z
 ---------------------------------------------------------------------
      1          6           0       -1.604140    1.538263   -0.328648
      2          6           0       -1.310715    0.130087   -0.224224
      3          6           0       -0.076604   -0.536245   -0.100591
      4          6           0        1.241668    0.259355   -0.261518
      5          6           0        1.769373    0.935873    1.016834
      6          8           0       -2.402878   -0.639906    0.302891
      7          8           0       -0.103457   -1.737499    0.350411
      8          8           0        2.311447   -0.514958   -0.819124
      9          1           0       -3.053565   -0.911840   -0.345880
     10          1           0        0.991328    1.522439    1.550112
     11          1           0        2.224362    0.196217    1.681213
     12          1           0        0.915587    0.962338   -1.079589
     13          1           0       -2.306906    1.862573    0.493767
     14          1           0       -0.790288    2.253801   -0.515705
     15          1           0        3.113618   -0.110677   -0.460721
     16          1           0       -2.159847    1.760337   -1.239677
     17          1           0        2.507319    1.639715    0.631941
 ---------------------------------------------------------------------
 Rotational constants (GHZ):           3.1822896           1.3760614           1.1251756
 Leave Link  202 at Thu Oct 24 13:32:00 2024, MaxMem=  4026531840 cpu:               0.1 elap:               0.0
 (Enter /opt/easybuild/software/Gaussian/16-AVX/g16/l301.exe)
 Standard basis: def2SVP (5D, 7F)
 Ernie: Thresh=  0.10000D-02 Tol=  0.10000D-05 Strict=F.
 There are   165 symmetry adapted cartesian basis functions of A   symmetry.
 There are   157 symmetry adapted basis functions of A   symmetry.
   157 basis functions,   263 primitive gaussians,   165 cartesian basis functions
    32 alpha electrons       32 beta electrons
       nuclear repulsion energy       385.2207145476 Hartrees.
 IExCor=  402 DFT=T Ex+Corr=B3LYP ExCW=0 ScaHFX=  0.200000
 ScaDFX=  0.800000  0.720000  1.000000  0.810000 ScalE2=  1.000000  1.000000
 IRadAn=      5 IRanWt=     -1 IRanGd=            0 ICorTp=0 IEmpDi=  4
 NAtoms=   17 NActive=   17 NUniq=   17 SFac= 1.00D+00 NAtFMM=   60 NAOKFM=F Big=F
 Integral buffers will be    131072 words long.
 Raffenetti 2 integral format.
 Two-electron integral symmetry is turned on.
 Leave Link  301 at Thu Oct 24 13:32:01 2024, MaxMem=  4026531840 cpu:               0.8 elap:               0.2
 (Enter /opt/easybuild/software/Gaussian/16-AVX/g16/l302.exe)
 NPDir=0 NMtPBC=     1 NCelOv=     1 NCel=       1 NClECP=     1 NCelD=      1
         NCelK=      1 NCelE2=     1 NClLst=     1 CellRange=     0.0.
 One-electron integrals computed using PRISM.
 One-electron integral symmetry used in STVInt
   1 Symmetry operations used in ECPInt.
 ECPInt:  NShTT=    2850 NPrTT=   10142 LenC2=    2821 LenP2D=    8044.
 LDataN:  DoStor=T MaxTD1= 4 Len=   56
 NBasis=   157 RedAO= T EigKep=  1.39D-03  NBF=   157
 NBsUse=   157 1.00D-06 EigRej= -1.00D+00 NBFU=   157
 Precomputing XC quadrature grid using
 IXCGrd= 4 IRadAn=           5 IRanWt=          -1 IRanGd=           0 AccXCQ= 0.00D+00.
 Generated NRdTot=       0 NPtTot=           0 NUsed=           0 NTot=          32
 NSgBfM=   165   165   165   165   165 MxSgAt=    17 MxSgA2=    17.
 Leave Link  302 at Thu Oct 24 13:32:02 2024, MaxMem=  4026531840 cpu:               1.4 elap:               0.2
 (Enter /opt/easybuild/software/Gaussian/16-AVX/g16/l303.exe)
 DipDrv:  MaxL=1.
 Leave Link  303 at Thu Oct 24 13:32:03 2024, MaxMem=  4026531840 cpu:               0.2 elap:               0.0
 (Enter /opt/easybuild/software/Gaussian/16-AVX/g16/l401.exe)
 ExpMin= 1.22D-01 ExpMax= 2.27D+03 ExpMxC= 3.41D+02 IAcc=3 IRadAn=         5 AccDes= 0.00D+00
 Harris functional with IExCor=  402 and IRadAn=       5 diagonalized for initial guess.
 HarFok:  IExCor=  402 AccDes= 0.00D+00 IRadAn=         5 IDoV= 1 UseB2=F ITyADJ=14
 ICtDFT=  3500011 ScaDFX=  1.000000  1.000000  1.000000  1.000000
 FoFCou: FMM=F IPFlag=           0 FMFlag=      100000 FMFlg1=           0
         NFxFlg=           0 DoJE=T BraDBF=F KetDBF=T FulRan=T
         wScrn=  0.000000 ICntrl=       500 IOpCl=  0 I1Cent=   200000004 NGrid=           0
         NMat0=    1 NMatS0=      1 NMatT0=    0 NMatD0=    1 NMtDS0=    0 NMtDT0=    0
 Petite list used in FoFCou.
 Harris En= -421.500759068532    
 JPrj=0 DoOrth=F DoCkMO=F.
 Leave Link  401 at Thu Oct 24 13:32:05 2024, MaxMem=  4026531840 cpu:               5.5 elap:               0.7
 (Enter /opt/easybuild/software/Gaussian/16-AVX/g16/l502.exe)
 Integral symmetry usage will be decided dynamically.
 Closed shell SCF:
 Using DIIS extrapolation, IDIIS=  1040.
 NGot=  4026531840 LenX=  4026474155 LenY=  4026446489
 Requested convergence on RMS density matrix=1.00D-08 within 128 cycles.
 Requested convergence on MAX density matrix=1.00D-06.
 Requested convergence on             energy=1.00D-06.
 No special actions if energy rises.
 Fock matrices will be formed incrementally for  20 cycles.
 Integral accuracy reduced to 1.0D-05 until final iterations.

 Cycle   1  Pass 0  IDiag  1:
 FoFJK:  IHMeth= 1 ICntrl=       0 DoSepK=F KAlg= 0 I1Cent=           0 FoldK=F
 IRaf= 970000000 NMat=       1 IRICut=       1 DoRegI=T DoRafI=F ISym2E= 0 IDoP0=0 IntGTp=1.
 FoFCou: FMM=F IPFlag=           0 FMFlag=      100000 FMFlg1=           0
         NFxFlg=           0 DoJE=F BraDBF=F KetDBF=F FulRan=T
         wScrn=  0.000000 ICntrl=         0 IOpCl=  0 I1Cent=           0 NGrid=           0
         NMat0=    1 NMatS0=      1 NMatT0=    0 NMatD0=    1 NMtDS0=    0 NMtDT0=    0
 Symmetry not used in FoFCou.
 E= -420.874968097991    
 DIIS: error= 3.39D-02 at cycle   1 NSaved=   1.
 NSaved= 1 IEnMin= 1 EnMin= -420.874968097991     IErMin= 1 ErrMin= 3.39D-02
 ErrMax= 3.39D-02  0.00D+00 EMaxC= 1.00D-01 BMatC= 3.71D-01 BMatP= 3.71D-01
 IDIUse=3 WtCom= 6.61D-01 WtEn= 3.39D-01
 Coeff-Com:  0.100D+01
 Coeff-En:   0.100D+01
 Coeff:      0.100D+01
 Gap=     0.174 Goal=   None    Shift=    0.000
 GapD=    0.174 DampG=1.000 DampE=0.500 DampFc=0.5000 IDamp=-1.
 Damping current iteration by 5.00D-01
 RMSDP=6.67D-02 MaxDP=3.91D+00              OVMax= 9.23D-01

 Cycle   2  Pass 0  IDiag  1:
 RMSU=  3.33D-02    CP:  9.76D-01
 E= -420.416469961819     Delta-E=        0.458498136172 Rises=F Damp=T
 DIIS: error= 3.97D-02 at cycle   2 NSaved=   2.
 NSaved= 2 IEnMin= 1 EnMin= -420.874968097991     IErMin= 1 ErrMin= 3.39D-02
 ErrMax= 3.97D-02  0.00D+00 EMaxC= 1.00D-01 BMatC= 2.49D-01 BMatP= 3.71D-01
 IDIUse=3 WtCom= 6.03D-01 WtEn= 3.97D-01
 Coeff-Com:  0.435D+00 0.565D+00
 Coeff-En:   0.739D+00 0.261D+00
 Coeff:      0.555D+00 0.445D+00
 Gap=     0.114 Goal=   None    Shift=    0.000
 RMSDP=3.25D-02 MaxDP=1.89D+00 DE= 4.58D-01 OVMax= 6.33D-01

 Cycle   3  Pass 0  IDiag  1:
 RMSU=  5.82D-03    CP:  9.77D-01  4.17D-02
 E= -421.052258942216     Delta-E=       -0.635788980398 Rises=F Damp=F
 DIIS: error= 2.46D-02 at cycle   3 NSaved=   3.
 NSaved= 3 IEnMin= 3 EnMin= -421.052258942216     IErMin= 3 ErrMin= 2.46D-02
 ErrMax= 2.46D-02  0.00D+00 EMaxC= 1.00D-01 BMatC= 1.95D-01 BMatP= 2.49D-01
 IDIUse=3 WtCom= 7.54D-01 WtEn= 2.46D-01
 EnCoef did     1 forward-backward iterations
 Coeff-Com:  0.249D+00 0.387D+00 0.364D+00
 Coeff-En:   0.212D+00 0.861D-01 0.702D+00
 Coeff:      0.240D+00 0.313D+00 0.447D+00
 Gap=     0.170 Goal=   None    Shift=    0.000
 RMSDP=3.73D-03 MaxDP=6.84D-02 DE=-6.36D-01 OVMax= 1.72D-01

 Cycle   4  Pass 0  IDiag  1:
 RMSU=  3.09D-03    CP:  9.89D-01  3.86D-02  6.45D-01
 E= -421.229020015440     Delta-E=       -0.176761073223 Rises=F Damp=F
 DIIS: error= 5.22D-03 at cycle   4 NSaved=   4.
 NSaved= 4 IEnMin= 4 EnMin= -421.229020015440     IErMin= 4 ErrMin= 5.22D-03
 ErrMax= 5.22D-03  0.00D+00 EMaxC= 1.00D-01 BMatC= 9.38D-03 BMatP= 1.95D-01
 IDIUse=3 WtCom= 9.48D-01 WtEn= 5.22D-02
 Coeff-Com:  0.231D-01 0.142D+00 0.154D+00 0.681D+00
 Coeff-En:   0.000D+00 0.000D+00 0.000D+00 0.100D+01
 Coeff:      0.219D-01 0.134D+00 0.146D+00 0.697D+00
 Gap=     0.136 Goal=   None    Shift=    0.000
 RMSDP=1.50D-03 MaxDP=3.88D-02 DE=-1.77D-01 OVMax= 7.41D-02

 Cycle   5  Pass 0  IDiag  1:
 RMSU=  1.35D-03    CP:  9.90D-01  4.52D-02  7.41D-01  9.09D-01
 E= -421.230078332291     Delta-E=       -0.001058316852 Rises=F Damp=F
 DIIS: error= 6.42D-03 at cycle   5 NSaved=   5.
 NSaved= 5 IEnMin= 5 EnMin= -421.230078332291     IErMin= 4 ErrMin= 5.22D-03
 ErrMax= 6.42D-03  0.00D+00 EMaxC= 1.00D-01 BMatC= 9.41D-03 BMatP= 9.38D-03
 IDIUse=3 WtCom= 9.36D-01 WtEn= 6.42D-02
 Coeff-Com: -0.526D-01 0.597D-01-0.195D-01 0.458D+00 0.555D+00
 Coeff-En:   0.000D+00 0.000D+00 0.000D+00 0.464D+00 0.536D+00
 Coeff:     -0.493D-01 0.558D-01-0.183D-01 0.458D+00 0.554D+00
 Gap=     0.131 Goal=   None    Shift=    0.000
 RMSDP=9.04D-04 MaxDP=2.49D-02 DE=-1.06D-03 OVMax= 5.98D-02

 Cycle   6  Pass 0  IDiag  1:
 RMSU=  4.01D-04    CP:  9.90D-01  4.93D-02  7.38D-01  1.15D+00  7.64D-01
 E= -421.239282882016     Delta-E=       -0.009204549725 Rises=F Damp=F
 DIIS: error= 1.52D-03 at cycle   6 NSaved=   6.
 NSaved= 6 IEnMin= 6 EnMin= -421.239282882016     IErMin= 6 ErrMin= 1.52D-03
 ErrMax= 1.52D-03  0.00D+00 EMaxC= 1.00D-01 BMatC= 4.95D-04 BMatP= 9.38D-03
 IDIUse=3 WtCom= 9.85D-01 WtEn= 1.52D-02
 Coeff-Com: -0.311D-01 0.126D-01-0.519D-01 0.748D-01 0.247D+00 0.748D+00
 Coeff-En:   0.000D+00 0.000D+00 0.000D+00 0.000D+00 0.000D+00 0.100D+01
 Coeff:     -0.307D-01 0.124D-01-0.511D-01 0.737D-01 0.244D+00 0.752D+00
 Gap=     0.126 Goal=   None    Shift=    0.000
 RMSDP=2.47D-04 MaxDP=3.90D-03 DE=-9.20D-03 OVMax= 5.38D-03

 Cycle   7  Pass 0  IDiag  1:
 RMSU=  1.48D-04    CP:  9.91D-01  5.05D-02  7.41D-01  1.18D+00  8.80D-01
                    CP:  9.55D-01
 E= -421.239705755799     Delta-E=       -0.000422873782 Rises=F Damp=F
 DIIS: error= 3.11D-04 at cycle   7 NSaved=   7.
 NSaved= 7 IEnMin= 7 EnMin= -421.239705755799     IErMin= 7 ErrMin= 3.11D-04
 ErrMax= 3.11D-04  0.00D+00 EMaxC= 1.00D-01 BMatC= 6.11D-05 BMatP= 4.95D-04
 IDIUse=3 WtCom= 9.97D-01 WtEn= 3.11D-03
 Coeff-Com: -0.108D-01 0.465D-02-0.236D-01-0.721D-02 0.595D-01 0.355D+00
 Coeff-Com:  0.623D+00
 Coeff-En:   0.000D+00 0.000D+00 0.000D+00 0.000D+00 0.000D+00 0.000D+00
 Coeff-En:   0.100D+01
 Coeff:     -0.107D-01 0.463D-02-0.235D-01-0.719D-02 0.593D-01 0.354D+00
 Coeff:      0.624D+00
 Gap=     0.126 Goal=   None    Shift=    0.000
 RMSDP=6.51D-05 MaxDP=1.07D-03 DE=-4.23D-04 OVMax= 2.60D-03

 Cycle   8  Pass 0  IDiag  1:
 RMSU=  4.47D-05    CP:  9.91D-01  5.07D-02  7.42D-01  1.19D+00  8.80D-01
                    CP:  1.00D+00  8.06D-01
 E= -421.239756963346     Delta-E=       -0.000051207547 Rises=F Damp=F
 DIIS: error= 1.75D-04 at cycle   8 NSaved=   8.
 NSaved= 8 IEnMin= 8 EnMin= -421.239756963346     IErMin= 8 ErrMin= 1.75D-04
 ErrMax= 1.75D-04  0.00D+00 EMaxC= 1.00D-01 BMatC= 9.86D-06 BMatP= 6.11D-05
 IDIUse=3 WtCom= 9.98D-01 WtEn= 1.75D-03
 Coeff-Com: -0.117D-02 0.900D-03-0.478D-02-0.162D-01-0.136D-01 0.507D-01
 Coeff-Com:  0.313D+00 0.671D+00
 Coeff-En:   0.000D+00 0.000D+00 0.000D+00 0.000D+00 0.000D+00 0.000D+00
 Coeff-En:   0.000D+00 0.100D+01
 Coeff:     -0.117D-02 0.898D-03-0.477D-02-0.161D-01-0.136D-01 0.506D-01
 Coeff:      0.313D+00 0.671D+00
 Gap=     0.126 Goal=   None    Shift=    0.000
 RMSDP=3.13D-05 MaxDP=4.59D-04 DE=-5.12D-05 OVMax= 7.60D-04

 Cycle   9  Pass 0  IDiag  1:
 RMSU=  1.42D-05    CP:  9.91D-01  5.09D-02  7.43D-01  1.20D+00  8.90D-01
                    CP:  1.03D+00  8.57D-01  7.84D-01
 E= -421.239765825063     Delta-E=       -0.000008861718 Rises=F Damp=F
 DIIS: error= 4.59D-05 at cycle   9 NSaved=   9.
 NSaved= 9 IEnMin= 9 EnMin= -421.239765825063     IErMin= 9 ErrMin= 4.59D-05
 ErrMax= 4.59D-05  0.00D+00 EMaxC= 1.00D-01 BMatC= 5.33D-07 BMatP= 9.86D-06
 IDIUse=1 WtCom= 1.00D+00 WtEn= 0.00D+00
 Coeff-Com: -0.946D-05 0.222D-03-0.426D-03-0.470D-02-0.939D-02-0.845D-02
 Coeff-Com:  0.653D-01 0.235D+00 0.723D+00
 Coeff:     -0.946D-05 0.222D-03-0.426D-03-0.470D-02-0.939D-02-0.845D-02
 Coeff:      0.653D-01 0.235D+00 0.723D+00
 Gap=     0.126 Goal=   None    Shift=    0.000
 RMSDP=8.15D-06 MaxDP=1.44D-04 DE=-8.86D-06 OVMax= 3.65D-04

 Initial convergence to 1.0D-05 achieved.  Increase integral accuracy.
 Cycle  10  Pass 1  IDiag  1:
 E= -421.239769463667     Delta-E=       -0.000003638603 Rises=F Damp=F
 DIIS: error= 1.08D-05 at cycle   1 NSaved=   1.
 NSaved= 1 IEnMin= 1 EnMin= -421.239769463667     IErMin= 1 ErrMin= 1.08D-05
 ErrMax= 1.08D-05  0.00D+00 EMaxC= 1.00D-01 BMatC= 4.78D-08 BMatP= 4.78D-08
 IDIUse=1 WtCom= 1.00D+00 WtEn= 0.00D+00
 Coeff-Com:  0.100D+01
 Coeff:      0.100D+01
 Gap=     0.126 Goal=   None    Shift=    0.000
 RMSDP=8.15D-06 MaxDP=1.44D-04 DE=-3.64D-06 OVMax= 1.93D-04

 Cycle  11  Pass 1  IDiag  1:
 RMSU=  6.35D-06    CP:  1.00D+00
 E= -421.239769407056     Delta-E=        0.000000056610 Rises=F Damp=F
 DIIS: error= 2.45D-05 at cycle   2 NSaved=   2.
 NSaved= 2 IEnMin= 1 EnMin= -421.239769463667     IErMin= 1 ErrMin= 1.08D-05
 ErrMax= 2.45D-05  0.00D+00 EMaxC= 1.00D-01 BMatC= 1.21D-07 BMatP= 4.78D-08
 IDIUse=1 WtCom= 1.00D+00 WtEn= 0.00D+00
 Coeff-Com:  0.622D+00 0.378D+00
 Coeff:      0.622D+00 0.378D+00
 Gap=     0.126 Goal=   None    Shift=    0.000
 RMSDP=3.69D-06 MaxDP=9.74D-05 DE= 5.66D-08 OVMax= 1.64D-04

 Cycle  12  Pass 1  IDiag  1:
 RMSU=  2.65D-06    CP:  1.00D+00  6.05D-01
 E= -421.239769503712     Delta-E=       -0.000000096655 Rises=F Damp=F
 DIIS: error= 5.35D-06 at cycle   3 NSaved=   3.
 NSaved= 3 IEnMin= 3 EnMin= -421.239769503712     IErMin= 3 ErrMin= 5.35D-06
 ErrMax= 5.35D-06  0.00D+00 EMaxC= 1.00D-01 BMatC= 7.88D-09 BMatP= 4.78D-08
 IDIUse=1 WtCom= 1.00D+00 WtEn= 0.00D+00
 Coeff-Com:  0.311D+00 0.235D+00 0.454D+00
 Coeff:      0.311D+00 0.235D+00 0.454D+00
 Gap=     0.126 Goal=   None    Shift=    0.000
 RMSDP=9.50D-07 MaxDP=2.62D-05 DE=-9.67D-08 OVMax= 5.73D-05

 Cycle  13  Pass 1  IDiag  1:
 RMSU=  6.65D-07    CP:  1.00D+00  6.58D-01  7.81D-01
 E= -421.239769510290     Delta-E=       -0.000000006578 Rises=F Damp=F
 DIIS: error= 1.45D-06 at cycle   4 NSaved=   4.
 NSaved= 4 IEnMin= 4 EnMin= -421.239769510290     IErMin= 4 ErrMin= 1.45D-06
 ErrMax= 1.45D-06  0.00D+00 EMaxC= 1.00D-01 BMatC= 7.87D-10 BMatP= 7.88D-09
 IDIUse=1 WtCom= 1.00D+00 WtEn= 0.00D+00
 Coeff-Com:  0.163D-01 0.246D-01 0.255D+00 0.704D+00
 Coeff:      0.163D-01 0.246D-01 0.255D+00 0.704D+00
 Gap=     0.126 Goal=   None    Shift=    0.000
 RMSDP=2.97D-07 MaxDP=8.08D-06 DE=-6.58D-09 OVMax= 1.21D-05

 Cycle  14  Pass 1  IDiag  1:
 RMSU=  1.40D-07    CP:  1.00D+00  6.53D-01  8.69D-01  8.43D-01
 E= -421.239769510976     Delta-E=       -0.000000000687 Rises=F Damp=F
 DIIS: error= 3.67D-07 at cycle   5 NSaved=   5.
 NSaved= 5 IEnMin= 5 EnMin= -421.239769510976     IErMin= 5 ErrMin= 3.67D-07
 ErrMax= 3.67D-07  0.00D+00 EMaxC= 1.00D-01 BMatC= 5.17D-11 BMatP= 7.87D-10
 IDIUse=1 WtCom= 1.00D+00 WtEn= 0.00D+00
 Coeff-Com: -0.236D-02 0.492D-02 0.130D+00 0.398D+00 0.470D+00
 Coeff:     -0.236D-02 0.492D-02 0.130D+00 0.398D+00 0.470D+00
 Gap=     0.126 Goal=   None    Shift=    0.000
 RMSDP=5.93D-08 MaxDP=1.38D-06 DE=-6.87D-10 OVMax= 1.27D-06

 Cycle  15  Pass 1  IDiag  1:
 RMSU=  4.55D-08    CP:  1.00D+00  6.55D-01  8.69D-01  8.38D-01  7.58D-01
 E= -421.239769511018     Delta-E=       -0.000000000042 Rises=F Damp=F
 DIIS: error= 5.12D-08 at cycle   6 NSaved=   6.
 NSaved= 6 IEnMin= 6 EnMin= -421.239769511018     IErMin= 6 ErrMin= 5.12D-08
 ErrMax= 5.12D-08  0.00D+00 EMaxC= 1.00D-01 BMatC= 1.13D-12 BMatP= 5.17D-11
 IDIUse=1 WtCom= 1.00D+00 WtEn= 0.00D+00
 Coeff-Com: -0.218D-02-0.613D-03 0.218D-01 0.665D-01 0.158D+00 0.756D+00
 Coeff:     -0.218D-02-0.613D-03 0.218D-01 0.665D-01 0.158D+00 0.756D+00
 Gap=     0.126 Goal=   None    Shift=    0.000
 RMSDP=1.45D-08 MaxDP=3.13D-07 DE=-4.22D-11 OVMax= 3.89D-07

 Cycle  16  Pass 1  IDiag  1:
 RMSU=  1.02D-08    CP:  1.00D+00  6.56D-01  8.72D-01  8.43D-01  7.95D-01
                    CP:  1.01D+00
 E= -421.239769511017     Delta-E=        0.000000000001 Rises=F Damp=F
 DIIS: error= 1.77D-08 at cycle   7 NSaved=   7.
 NSaved= 7 IEnMin= 6 EnMin= -421.239769511018     IErMin= 7 ErrMin= 1.77D-08
 ErrMax= 1.77D-08  0.00D+00 EMaxC= 1.00D-01 BMatC= 8.96D-14 BMatP= 1.13D-12
 IDIUse=1 WtCom= 1.00D+00 WtEn= 0.00D+00
 Coeff-Com: -0.719D-03-0.547D-03 0.199D-02 0.436D-02 0.342D-01 0.269D+00
 Coeff-Com:  0.692D+00
 Coeff:     -0.719D-03-0.547D-03 0.199D-02 0.436D-02 0.342D-01 0.269D+00
 Coeff:      0.692D+00
 Gap=     0.126 Goal=   None    Shift=    0.000
 RMSDP=5.71D-09 MaxDP=1.27D-07 DE= 1.48D-12 OVMax= 1.53D-07

 SCF Done:  E(RB3LYP) =  -421.239769511     A.U. after   16 cycles
            NFock= 16  Conv=0.57D-08     -V/T= 2.0089
 KE= 4.175094295834D+02 PE=-1.768810890856D+03 EE= 5.448409772143D+02
 Leave Link  502 at Thu Oct 24 13:32:18 2024, MaxMem=  4026531840 cpu:              90.7 elap:              11.4
 (Enter /opt/easybuild/software/Gaussian/16-AVX/g16/l801.exe)
 DoSCS=F DFT=T ScalE2(SS,OS)=  1.000000  1.000000
 Range of M.O.s used for correlation:     1   157
 NBasis=   157 NAE=    32 NBE=    32 NFC=     0 NFV=     0
 NROrb=    157 NOA=    32 NOB=    32 NVA=   125 NVB=   125
 Leave Link  801 at Thu Oct 24 13:32:18 2024, MaxMem=  4026531840 cpu:               0.2 elap:               0.1
 (Enter /opt/easybuild/software/Gaussian/16-AVX/g16/l1101.exe)
 Using compressed storage, NAtomX=    17.
 Will process     18 centers per pass.
   1 Symmetry operations used in ECPInt.
 ECPInt:  NShTT=    2850 NPrTT=   10142 LenC2=    2821 LenP2D=    8044.
 LDataN:  DoStor=T MaxTD1= 5 Len=  102
 Leave Link 1101 at Thu Oct 24 13:32:19 2024, MaxMem=  4026531840 cpu:               1.0 elap:               0.1
 (Enter /opt/easybuild/software/Gaussian/16-AVX/g16/l1102.exe)
 Symmetrizing basis deriv contribution to polar:
 IMax=3 JMax=2 DiffMx= 0.00D+00
 Leave Link 1102 at Thu Oct 24 13:32:21 2024, MaxMem=  4026531840 cpu:               0.2 elap:               0.1
 (Enter /opt/easybuild/software/Gaussian/16-AVX/g16/l1110.exe)
 Forming Gx(P) for the SCF density, NAtomX=    17.
 Integral derivatives from FoFJK, PRISM(SPDF).
 Do as many integral derivatives as possible in FoFJK.
 G2DrvN: MDV=    4026530344.
 G2DrvN: will do    18 centers at a time, making    1 passes.
 Calling FoFCou, ICntrl=  3107 FMM=F I1Cent=   0 AccDes= 0.00D+00.
 FoFJK:  IHMeth= 1 ICntrl=    3107 DoSepK=F KAlg= 0 I1Cent=           0 FoldK=F
 IRaf=         0 NMat=       1 IRICut=       1 DoRegI=T DoRafI=F ISym2E= 0 IDoP0=0 IntGTp=1.
 FoFCou: FMM=F IPFlag=           0 FMFlag=      100000 FMFlg1=           0
         NFxFlg=           0 DoJE=F BraDBF=F KetDBF=F FulRan=T
         wScrn=  0.000000 ICntrl=      3107 IOpCl=  0 I1Cent=           0 NGrid=           0
         NMat0=    1 NMatS0=      1 NMatT0=    0 NMatD0=    1 NMtDS0=    0 NMtDT0=    0
 Symmetry not used in FoFCou.
 End of G2Drv F.D. properties file   721 does not exist.
 End of G2Drv F.D. properties file   722 does not exist.
 End of G2Drv F.D. properties file   788 does not exist.
 Leave Link 1110 at Thu Oct 24 13:32:46 2024, MaxMem=  4026531840 cpu:             195.8 elap:              24.5
 (Enter /opt/easybuild/software/Gaussian/16-AVX/g16/l1002.exe)
 Minotr:  Closed shell wavefunction.
          IDoAtm=11111111111111111
          Direct CPHF calculation.
          Differentiating once with respect to nuclear coordinates.
          Requested convergence is 1.0D-08 RMS, and 1.0D-07 maximum.
          Secondary convergence is 1.0D-12 RMS, and 1.0D-12 maximum.
          NewPWx=T KeepS1=F KeepF1=F KeepIn=T MapXYZ=F SortEE=F KeepMc=T.
         5053 words used for storage of precomputed grid.
 Keep R1 ints in memory in canonical form, NReq=84861255.
 FoFCou: FMM=F IPFlag=           0 FMFlag=           0 FMFlg1=           0
         NFxFlg=           0 DoJE=F BraDBF=F KetDBF=F FulRan=T
         wScrn=  0.000000 ICntrl=       600 IOpCl=  0 I1Cent=           0 NGrid=           0
         NMat0=    1 NMatS0=  12403 NMatT0=    0 NMatD0=    1 NMtDS0=    0 NMtDT0=    0
 Symmetry not used in FoFCou.
 Two-electron integral symmetry not used.
          MDV=    4026531840 using IRadAn=       1.
          Solving linear equations simultaneously, MaxMat=       0.
          There are    54 degrees of freedom in the 1st order CPHF.  IDoFFX=6 NUNeed=     0.
     48 vectors produced by pass  0 Test12= 7.41D-15 1.85D-09 XBig12= 1.92D-01 1.16D-01.
 AX will form    48 AO Fock derivatives at one time.
     48 vectors produced by pass  1 Test12= 7.41D-15 1.85D-09 XBig12= 4.37D-02 4.16D-02.
     48 vectors produced by pass  2 Test12= 7.41D-15 1.85D-09 XBig12= 6.02D-04 4.74D-03.
     48 vectors produced by pass  3 Test12= 7.41D-15 1.85D-09 XBig12= 2.35D-06 2.34D-04.
     48 vectors produced by pass  4 Test12= 7.41D-15 1.85D-09 XBig12= 4.99D-09 8.77D-06.
     36 vectors produced by pass  5 Test12= 7.41D-15 1.85D-09 XBig12= 5.37D-12 3.13D-07.
      9 vectors produced by pass  6 Test12= 7.41D-15 1.85D-09 XBig12= 4.58D-15 8.07D-09.
 InvSVY:  IOpt=1 It=  1 EMax= 4.44D-16
 Solved reduced A of dimension   285 with    54 vectors.
 End of Minotr F.D. properties file   721 does not exist.
 End of Minotr F.D. properties file   722 does not exist.
 End of Minotr F.D. properties file   788 does not exist.
 Leave Link 1002 at Thu Oct 24 13:33:06 2024, MaxMem=  4026531840 cpu:             153.3 elap:              19.2
 (Enter /opt/easybuild/software/Gaussian/16-AVX/g16/l601.exe)
 Copying SCF densities to generalized density rwf, IOpCl= 0 IROHF=0.

 **********************************************************************

            Population analysis using the SCF Density.

 **********************************************************************

 Orbital symmetries:
       Occupied  (A) (A) (A) (A) (A) (A) (A) (A) (A) (A) (A) (A)
                 (A) (A) (A) (A) (A) (A) (A) (A) (A) (A) (A) (A)
                 (A) (A) (A) (A) (A) (A) (A) (A)
       Virtual   (A) (A) (A) (A) (A) (A) (A) (A) (A) (A) (A) (A)
                 (A) (A) (A) (A) (A) (A) (A) (A) (A) (A) (A) (A)
                 (A) (A) (A) (A) (A) (A) (A) (A) (A) (A) (A) (A)
                 (A) (A) (A) (A) (A) (A) (A) (A) (A) (A) (A) (A)
                 (A) (A) (A) (A) (A) (A) (A) (A) (A) (A) (A) (A)
                 (A) (A) (A) (A) (A) (A) (A) (A) (A) (A) (A) (A)
                 (A) (A) (A) (A) (A) (A) (A) (A) (A) (A) (A) (A)
                 (A) (A) (A) (A) (A) (A) (A) (A) (A) (A) (A) (A)
                 (A) (A) (A) (A) (A) (A) (A) (A) (A) (A) (A) (A)
                 (A) (A) (A) (A) (A) (A) (A) (A) (A) (A) (A) (A)
                 (A) (A) (A) (A) (A)
 The electronic state is 1-A.
 Alpha  occ. eigenvalues --  -18.96960 -18.92412 -18.82794 -10.06441 -10.04722
 Alpha  occ. eigenvalues --  -10.01075 -10.00671  -9.97853  -0.84697  -0.79244
 Alpha  occ. eigenvalues --   -0.71530  -0.59122  -0.55787  -0.48499  -0.42549
 Alpha  occ. eigenvalues --   -0.34333  -0.32411  -0.30241  -0.28181  -0.26564
 Alpha  occ. eigenvalues --   -0.24047  -0.23627  -0.22688  -0.21345  -0.17900
 Alpha  occ. eigenvalues --   -0.16322  -0.14814  -0.11294  -0.09265  -0.07968
 Alpha  occ. eigenvalues --    0.01066   0.05305
 Alpha virt. eigenvalues --    0.17863   0.20789   0.22409   0.24045   0.24609
 Alpha virt. eigenvalues --    0.26136   0.26967   0.27764   0.29807   0.31240
 Alpha virt. eigenvalues --    0.36077   0.37623   0.43017   0.44307   0.46905
 Alpha virt. eigenvalues --    0.53962   0.54659   0.59766   0.62169   0.64462
 Alpha virt. eigenvalues --    0.65892   0.68499   0.70468   0.71024   0.72702
 Alpha virt. eigenvalues --    0.74089   0.76447   0.77436   0.79045   0.79671
 Alpha virt. eigenvalues --    0.80688   0.80979   0.82500   0.82976   0.84647
 Alpha virt. eigenvalues --    0.85488   0.86139   0.87578   0.88378   0.91022
 Alpha virt. eigenvalues --    0.93991   0.99137   1.02416   1.05046   1.11662
 Alpha virt. eigenvalues --    1.12958   1.17075   1.18356   1.21486   1.21565
 Alpha virt. eigenvalues --    1.25341   1.27536   1.35738   1.36964   1.39625
 Alpha virt. eigenvalues --    1.44426   1.45423   1.49465   1.51397   1.57594
 Alpha virt. eigenvalues --    1.64174   1.65153   1.66063   1.68205   1.70051
 Alpha virt. eigenvalues --    1.70472   1.77285   1.78104   1.83166   1.84316
 Alpha virt. eigenvalues --    1.87410   1.88725   1.90896   1.95292   1.95833
 Alpha virt. eigenvalues --    1.97469   1.99024   2.01317   2.02960   2.06060
 Alpha virt. eigenvalues --    2.07268   2.07990   2.11074   2.13860   2.18507
 Alpha virt. eigenvalues --    2.20809   2.23065   2.30160   2.32819   2.34514
 Alpha virt. eigenvalues --    2.37225   2.39846   2.43911   2.44740   2.49324
 Alpha virt. eigenvalues --    2.58210   2.59467   2.63123   2.64010   2.66262
 Alpha virt. eigenvalues --    2.70756   2.80159   2.87314   2.90178   2.92077
 Alpha virt. eigenvalues --    2.97124   3.01173   3.03310   3.06252   3.09610
 Alpha virt. eigenvalues --    3.10308   3.11993   3.15856   3.17892   3.19406
 Alpha virt. eigenvalues --    3.23667   3.29866   3.32246   3.36812   3.52003
 Alpha virt. eigenvalues --    3.62251   3.62765   3.83814   3.92511   3.94594
          Condensed to atoms (all electrons):
               1          2          3          4          5          6
     1  C    4.807592   0.315380  -0.080585   0.009557  -0.003952  -0.082438
     2  C    0.315380   5.702496   0.226255  -0.149170  -0.021875   0.345571
     3  C   -0.080585   0.226255   5.146695   0.155067  -0.038419  -0.074864
     4  C    0.009557  -0.149170   0.155067   5.032380   0.360745   0.002519
     5  C   -0.003952  -0.021875  -0.038419   0.360745   4.752149   0.000062
     6  O   -0.082438   0.345571  -0.074864   0.002519   0.000062   7.815608
     7  O    0.006924  -0.148633   0.709263  -0.084062  -0.001886  -0.006971
     8  O    0.000229   0.001156  -0.056430   0.371368  -0.059482  -0.000002
     9  H    0.011605  -0.078085   0.008780   0.000696  -0.000116   0.295571
    10  H    0.001773   0.008721  -0.005891   0.006850   0.328025  -0.000119
    11  H   -0.000652   0.003327  -0.005171  -0.020412   0.338500  -0.000003
    12  H   -0.008155   0.027471  -0.034468   0.279215  -0.023210  -0.000037
    13  H    0.254456  -0.012779   0.012865  -0.005477   0.002642   0.019015
    14  H    0.300666   0.008874  -0.007724  -0.003942   0.003161   0.005740
    15  H    0.000095  -0.000708   0.008535  -0.037659  -0.014569   0.000003
    16  H    0.306731  -0.050052  -0.003166   0.004363  -0.001237   0.002639
    17  H    0.000542  -0.000230   0.010367  -0.025891   0.339835   0.000002
               7          8          9         10         11         12
     1  C    0.006924   0.000229   0.011605   0.001773  -0.000652  -0.008155
     2  C   -0.148633   0.001156  -0.078085   0.008721   0.003327   0.027471
     3  C    0.709263  -0.056430   0.008780  -0.005891  -0.005171  -0.034468
     4  C   -0.084062   0.371368   0.000696   0.006850  -0.020412   0.279215
     5  C   -0.001886  -0.059482  -0.000116   0.328025   0.338500  -0.023210
     6  O   -0.006971  -0.000002   0.295571  -0.000119  -0.000003  -0.000037
     7  O    7.957924   0.000334   0.003499  -0.000555   0.006102   0.004662
     8  O    0.000334   7.761857   0.000009   0.005046   0.005472  -0.045922
     9  H    0.003499   0.000009   0.639668   0.000039   0.000000  -0.000324
    10  H   -0.000555   0.005046   0.000039   0.690574  -0.013690  -0.002025
    11  H    0.006102   0.005472   0.000000  -0.013690   0.716268   0.013968
    12  H    0.004662  -0.045922  -0.000324  -0.002025   0.013968   0.861425
    13  H    0.000360  -0.000018  -0.008148  -0.001169   0.000032   0.002496
    14  H    0.000148  -0.000211  -0.000815   0.000477   0.000063   0.009171
    15  H   -0.000215   0.312178  -0.000000  -0.000355   0.000475   0.000083
    16  H   -0.000290   0.000031   0.008891   0.000364   0.000020  -0.003859
    17  H   -0.000167   0.000719   0.000002  -0.020363  -0.042748  -0.022339
              13         14         15         16         17
     1  C    0.254456   0.300666   0.000095   0.306731   0.000542
     2  C   -0.012779   0.008874  -0.000708  -0.050052  -0.000230
     3  C    0.012865  -0.007724   0.008535  -0.003166   0.010367
     4  C   -0.005477  -0.003942  -0.037659   0.004363  -0.025891
     5  C    0.002642   0.003161  -0.014569  -0.001237   0.339835
     6  O    0.019015   0.005740   0.000003   0.002639   0.000002
     7  O    0.000360   0.000148  -0.000215  -0.000290  -0.000167
     8  O   -0.000018  -0.000211   0.312178   0.000031   0.000719
     9  H   -0.008148  -0.000815  -0.000000   0.008891   0.000002
    10  H   -0.001169   0.000477  -0.000355   0.000364  -0.020363
    11  H    0.000032   0.000063   0.000475   0.000020  -0.042748
    12  H    0.002496   0.009171   0.000083  -0.003859  -0.022339
    13  H    0.899462  -0.004460  -0.000004  -0.095109  -0.000216
    14  H   -0.004460   0.814562  -0.000033  -0.057891  -0.000388
    15  H   -0.000004  -0.000033   0.602452  -0.000002   0.011293
    16  H   -0.095109  -0.057891  -0.000002   0.985926   0.000077
    17  H   -0.000216  -0.000388   0.011293   0.000077   0.790290
 Mulliken charges:
               1
     1  C    0.160231
     2  C   -0.177719
     3  C    0.028891
     4  C    0.103851
     5  C    0.039626
     6  O   -0.322298
     7  O   -0.446439
     8  O   -0.296335
     9  H    0.118729
    10  H    0.002299
    11  H   -0.001553
    12  H   -0.058152
    13  H   -0.063947
    14  H   -0.067398
    15  H    0.118433
    16  H   -0.097435
    17  H   -0.040784
 Sum of Mulliken charges =  -1.00000
 Mulliken charges with hydrogens summed into heavy atoms:
               1
     1  C   -0.068549
     2  C   -0.177719
     3  C    0.028891
     4  C    0.045699
     5  C   -0.000412
     6  O   -0.203569
     7  O   -0.446439
     8  O   -0.177902
 APT charges:
               1
     1  C   -0.415677
     2  C   -0.297308
     3  C   -0.595319
     4  C   -0.347729
     5  C   -0.498965
     6  O   -0.712792
     7  O   -0.092563
     8  O   -0.537800
     9  H    0.604697
    10  H    0.122162
    11  H    0.272724
    12  H    0.104240
    13  H    0.229171
    14  H    0.146342
    15  H    0.544483
    16  H    0.193050
    17  H    0.281284
 Sum of APT charges =  -1.00000
 APT charges with hydrogens summed into heavy atoms:
               1
     1  C    0.152886
     2  C   -0.297308
     3  C   -0.595319
     4  C   -0.243489
     5  C    0.177205
     6  O   -0.108095
     7  O   -0.092563
     8  O    0.006683
 Electronic spatial extent (au):  <R**2>=           1126.1666
 Charge=             -1.0000 electrons
 Dipole moment (field-independent basis, Debye):
    X=              2.5188    Y=              4.5758    Z=             -0.4832  Tot=              5.2456
 Quadrupole moment (field-independent basis, Debye-Ang):
   XX=            -55.3613   YY=            -64.1174   ZZ=            -54.6968
   XY=              4.0057   XZ=              4.9572   YZ=              1.9236
 Traceless Quadrupole moment (field-independent basis, Debye-Ang):
   XX=              2.6972   YY=             -6.0589   ZZ=              3.3617
   XY=              4.0057   XZ=              4.9572   YZ=              1.9236
 Octapole moment (field-independent basis, Debye-Ang**2):
  XXX=             14.8035  YYY=             -3.4221  ZZZ=              2.3810  XYY=              2.3719
  XXY=             -9.5791  XXZ=             -4.8135  XZZ=             -0.8544  YZZ=             -4.6946
  YYZ=             -3.8371  XYZ=             -8.3200
 Hexadecapole moment (field-independent basis, Debye-Ang**3):
 XXXX=           -819.6115 YYYY=           -437.1274 ZZZZ=           -172.6979 XXXY=             42.6009
 XXXZ=             15.8044 YYYX=             19.8007 YYYZ=              6.2065 ZZZX=            -11.6043
 ZZZY=             -0.7059 XXYY=           -231.9280 XXZZ=           -194.9148 YYZZ=            -97.7329
 XXYZ=              1.6794 YYXZ=             -3.9658 ZZXY=              4.5317
 N-N= 3.852207145476D+02 E-N=-1.768810892855D+03  KE= 4.175094295834D+02
  Exact polarizability:   0.000   0.000   0.000   0.000   0.000   0.000
 Approx polarizability: 123.531 -20.202 122.568   7.060 -12.024  83.407
 No NMR shielding tensors so no spin-rotation constants.
 Leave Link  601 at Thu Oct 24 13:33:07 2024, MaxMem=  4026531840 cpu:               0.7 elap:               0.2
 (Enter /opt/easybuild/software/Gaussian/16-AVX/g16/l701.exe)
 ... and contract with generalized density number  0.
 Compute integral second derivatives.
   1 Symmetry operations used in ECPInt.
 ECPInt:  NShTT=    2850 NPrTT=   10142 LenC2=    2821 LenP2D=    8044.
 LDataN:  DoStor=T MaxTD1= 6 Len=  172
 Leave Link  701 at Thu Oct 24 13:33:08 2024, MaxMem=  4026531840 cpu:               1.0 elap:               0.2
 (Enter /opt/easybuild/software/Gaussian/16-AVX/g16/l702.exe)
 L702 exits ... SP integral derivatives will be done elsewhere.
 Leave Link  702 at Thu Oct 24 13:33:11 2024, MaxMem=  4026531840 cpu:               0.2 elap:               0.0
 (Enter /opt/easybuild/software/Gaussian/16-AVX/g16/l703.exe)
 Integral derivatives from FoFJK, PRISM(SPDF).
 Compute integral second derivatives, UseDBF=F ICtDFT=           0.
 Calling FoFJK, ICntrl=    100147 FMM=F ISym2X=0 I1Cent= 0 IOpClX= 0 NMat=1 NMatS=1 NMatT=0.
 FoFJK:  IHMeth= 1 ICntrl=  100147 DoSepK=F KAlg= 0 I1Cent=           0 FoldK=F
 IRaf=         0 NMat=       1 IRICut=       1 DoRegI=T DoRafI=F ISym2E= 0 IDoP0=0 IntGTp=1.
 FoFCou: FMM=F IPFlag=           0 FMFlag=      100000 FMFlg1=         800
         NFxFlg=           0 DoJE=F BraDBF=F KetDBF=F FulRan=T
         wScrn=  0.000000 ICntrl=    100147 IOpCl=  0 I1Cent=           0 NGrid=           0
         NMat0=    1 NMatS0=      1 NMatT0=    0 NMatD0=    1 NMtDS0=    0 NMtDT0=    0
 Symmetry not used in FoFCou.
 Leave Link  703 at Thu Oct 24 13:33:40 2024, MaxMem=  4026531840 cpu:             225.8 elap:              28.3
 (Enter /opt/easybuild/software/Gaussian/16-AVX/g16/l716.exe)
 Dipole        = 9.90963441D-01 1.80027355D+00-1.90116106D-01
 Polarizability= 0.00000000D+00 0.00000000D+00 0.00000000D+00
                 0.00000000D+00 0.00000000D+00 0.00000000D+00
 ***** Axes restored to original set *****
 -------------------------------------------------------------------
 Center     Atomic                   Forces (Hartrees/Bohr)
 Number     Number              X              Y              Z
 -------------------------------------------------------------------
      1        6           0.013191083   -0.031260967   -0.010565083
      2        6          -0.006456978    0.035944967    0.015233441
      3        6          -0.008430209    0.004525031    0.059679996
      4        6           0.028542453   -0.005056076    0.002038922
      5        6           0.022839352   -0.012747497   -0.003407340
      6        8          -0.016403357   -0.012770146   -0.006176350
      7        8          -0.007659099    0.010804621   -0.035205716
      8        8          -0.004059643    0.001720581    0.003683154
      9        1           0.010319727    0.003955771   -0.010623476
     10        1           0.000777896    0.007417258   -0.000031087
     11        1          -0.001690724    0.002284341    0.004106214
     12        1          -0.021254638   -0.003421532   -0.003968250
     13        1          -0.005302157    0.004589316   -0.010017508
     14        1          -0.017707820    0.004404924    0.003215073
     15        1           0.004025918    0.003034728    0.000213223
     16        1           0.024705549   -0.013046146    0.000652670
     17        1          -0.015437354   -0.000379176   -0.008827882
 -------------------------------------------------------------------
 Cartesian Forces:  Max     0.059679996 RMS     0.015561796
 FormGI is forming the generalized inverse of G from B-inverse, IUseBI=4.
 Leave Link  716 at Thu Oct 24 13:33:41 2024, MaxMem=  4026531840 cpu:               0.2 elap:               0.2
 (Enter /opt/easybuild/software/Gaussian/16-AVX/g16/l103.exe)

 GradGradGradGradGradGradGradGradGradGradGradGradGradGradGradGradGradGrad
 Berny optimization.
 Red2BG is reusing G-inverse.
 Internal  Forces:  Max     0.048361739 RMS     0.012028952
 Search for a local minimum.
 Step number   1 out of a maximum of   82
 All quantities printed in internal units (Hartrees-Bohrs-Radians)
 RMS Force = .12029D-01 SwitMx=.10000D-02 MixMth= 1
 Mixed Optimization -- RFO/linear search
 Second derivative matrix not updated -- analytic derivatives used.
 ITU=  0
     Eigenvalues ---   -0.00259  -0.00239   0.00069   0.00159   0.00241
     Eigenvalues ---    0.00647   0.02071   0.03584   0.03903   0.04345
     Eigenvalues ---    0.04792   0.05322   0.05352   0.06489   0.07090
     Eigenvalues ---    0.10525   0.11375   0.12088   0.12524   0.13156
     Eigenvalues ---    0.13461   0.14954   0.15497   0.16464   0.17053
     Eigenvalues ---    0.19405   0.20549   0.22888   0.24917   0.27247
     Eigenvalues ---    0.27451   0.27813   0.32076   0.32230   0.32826
     Eigenvalues ---    0.34075   0.35389   0.35506   0.35910   0.37110
     Eigenvalues ---    0.43315   0.46808   0.51276   0.52556   0.62086
 Eigenvalue     1 is  -2.59D-03 should be greater than     0.000000 Eigenvector:
                          D12       D11       D3        D5        D28
   1                    0.69081   0.63410  -0.13087  -0.12378  -0.12236
                          D1        D29       D30       D8        D7
   1                   -0.12160  -0.12011  -0.11962   0.09329   0.07325
 Eigenvalue     2 is  -2.39D-03 should be greater than     0.000000 Eigenvector:
                          D29       D28       D30       D12       D11
   1                   -0.56384  -0.56154  -0.54985  -0.15095  -0.13303
                          D23       D17       D24       D14       D3
   1                    0.05215  -0.04678   0.04315  -0.04248   0.03741
 RFO step:  Lambda=-4.10638837D-02 EMin=-2.58643904D-03
 Linear search not attempted -- first point.
 Maximum step size (   0.300) exceeded in Quadratic search.
    -- Step size scaled by   0.780
 Iteration  1 RMS(Cart)=  0.08858637 RMS(Int)=  0.06499438
 Iteration  2 RMS(Cart)=  0.03957848 RMS(Int)=  0.03128083
 Iteration  3 RMS(Cart)=  0.03454389 RMS(Int)=  0.00343396
 Iteration  4 RMS(Cart)=  0.00303425 RMS(Int)=  0.00108289
 Iteration  5 RMS(Cart)=  0.00001659 RMS(Int)=  0.00108284
 Iteration  6 RMS(Cart)=  0.00000000 RMS(Int)=  0.00108284
 ITry= 1 IFail=0 DXMaxC= 7.02D-01 DCOld= 1.00D+10 DXMaxT= 3.00D-01 DXLimC= 3.00D+00 Rises=F
 Variable       Old X    -DE/DX   Delta X   Delta X   Delta X     New X
                                 (Linear)    (Quad)   (Total)
    R1        2.72538   0.03870   0.00000   0.06708   0.06708   2.79246
    R2        2.13416  -0.00781   0.00000  -0.02730  -0.02730   2.10686
    R3        2.07813   0.00422   0.00000   0.00429   0.00429   2.08242
    R4        2.05980   0.02587   0.00000   0.04261   0.04261   2.10241
    R5        2.66063   0.00531   0.00000  -0.01432  -0.01432   2.64632
    R6        2.71461  -0.01647   0.00000  -0.02716  -0.02716   2.68744
    R7        2.92555  -0.00255   0.00000   0.00476   0.00476   2.93031
    R8        2.42529  -0.02006   0.00000  -0.03274  -0.03274   2.39255
    R9        2.90940  -0.00489   0.00000  -0.01925  -0.01925   2.89015
   R10        2.70892   0.00334   0.00000   0.00166   0.00166   2.71057
   R11        2.12941  -0.00930   0.00000  -0.02629  -0.02629   2.10311
   R12        2.09904  -0.00703   0.00000  -0.01464  -0.01464   2.08440
   R13        2.06621   0.00453   0.00000   0.01220   0.01220   2.07841
   R14        2.05980   0.01208   0.00000   0.02383   0.02383   2.08363
   R15        1.81083   0.00806   0.00000   0.01193   0.01193   1.82276
   R16        1.82764  -0.00328   0.00000  -0.00583  -0.00583   1.82181
    A1        1.93293   0.00501   0.00000   0.00791   0.00551   1.93844
    A2        2.09100  -0.01468   0.00000  -0.06549  -0.06705   2.02395
    A3        1.94247   0.00804   0.00000   0.03255   0.03294   1.97541
    A4        1.97964  -0.00402   0.00000  -0.04128  -0.04470   1.93494
    A5        1.80585  -0.00305   0.00000   0.00677   0.00642   1.81227
    A6        1.67355   0.01208   0.00000   0.08633   0.08733   1.76087
    A7        2.27416  -0.00325   0.00000   0.00816   0.00658   2.28074
    A8        1.97714  -0.01238   0.00000  -0.02193  -0.02377   1.95337
    A9        1.96115   0.01642   0.00000   0.04994   0.04869   2.00985
   A10        2.08753  -0.02257   0.00000  -0.01677  -0.01750   2.07003
   A11        2.04372   0.04836   0.00000   0.09848   0.09807   2.14178
   A12        2.13573  -0.02502   0.00000  -0.06964  -0.07063   2.06510
   A13        2.01681  -0.00818   0.00000  -0.05394  -0.05412   1.96269
   A14        1.98047  -0.00743   0.00000  -0.02924  -0.02947   1.95100
   A15        1.72102   0.01595   0.00000   0.10699   0.10674   1.82776
   A16        1.88025   0.01020   0.00000   0.03239   0.03145   1.91170
   A17        2.01292  -0.01214   0.00000  -0.06380  -0.06268   1.95024
   A18        1.84475   0.00135   0.00000   0.01146   0.01194   1.85668
   A19        1.97207  -0.00293   0.00000  -0.02322  -0.02388   1.94819
   A20        1.92827  -0.00459   0.00000  -0.02048  -0.02104   1.90722
   A21        1.79527   0.01998   0.00000   0.09388   0.09375   1.88902
   A22        1.93583  -0.00014   0.00000  -0.01710  -0.01813   1.91770
   A23        1.87838  -0.00451   0.00000   0.00074   0.00049   1.87887
   A24        1.94944  -0.00681   0.00000  -0.02692  -0.02692   1.92251
   A25        2.00418  -0.02320   0.00000  -0.07662  -0.07662   1.92755
   A26        1.82248   0.00676   0.00000   0.02883   0.02883   1.85130
    D1       -2.14647   0.00535   0.00000  -0.06444  -0.06487  -2.21134
    D2        0.56299   0.01118   0.00000   0.05148   0.04975   0.61274
    D3        0.20949  -0.01140   0.00000  -0.19362  -0.19138   0.01810
    D4        2.91894  -0.00557   0.00000  -0.07770  -0.07676   2.84218
    D5        2.13802   0.00130   0.00000  -0.09684  -0.09670   2.04131
    D6       -1.43571   0.00714   0.00000   0.01908   0.01792  -1.41779
    D7       -0.15040   0.00203   0.00000   0.08279   0.08182  -0.06857
    D8        2.80333   0.00386   0.00000   0.14448   0.14752   2.95084
    D9       -2.86294   0.00177   0.00000  -0.01848  -0.02151  -2.88445
   D10        0.09078   0.00360   0.00000   0.04322   0.04418   0.13496
   D11        1.47942   0.00140   0.00000   0.52749   0.52724   2.00666
   D12       -2.01484   0.00255   0.00000   0.61498   0.61524  -1.39960
   D13        1.50991   0.00352   0.00000   0.06667   0.06396   1.57387
   D14       -2.58908   0.00415   0.00000   0.03943   0.03863  -2.55045
   D15       -0.64568   0.01160   0.00000   0.09899   0.09840  -0.54728
   D16       -1.43353  -0.00657   0.00000  -0.01747  -0.01744  -1.45098
   D17        0.75066  -0.00593   0.00000  -0.04471  -0.04277   0.70789
   D18        2.69405   0.00152   0.00000   0.01485   0.01700   2.71106
   D19       -0.85743  -0.00186   0.00000  -0.02078  -0.02145  -0.87888
   D20        1.32285  -0.00781   0.00000  -0.07676  -0.07696   1.24589
   D21       -2.87740  -0.00680   0.00000  -0.06557  -0.06611  -2.94351
   D22       -3.09238   0.00586   0.00000   0.03317   0.03292  -3.05946
   D23       -0.91211  -0.00010   0.00000  -0.02281  -0.02258  -0.93469
   D24        1.17083   0.00091   0.00000  -0.01162  -0.01173   1.15910
   D25        1.13569   0.00440   0.00000   0.03486   0.03517   1.17086
   D26       -2.96722  -0.00156   0.00000  -0.02113  -0.02033  -2.98755
   D27       -0.88428  -0.00055   0.00000  -0.00993  -0.00948  -0.89376
   D28       -2.65053   0.00756   0.00000   0.17912   0.17924  -2.47129
   D29       -0.39485  -0.00067   0.00000   0.11139   0.11089  -0.28396
   D30        1.76605  -0.00867   0.00000   0.06016   0.06054   1.82659
         Item               Value     Threshold  Converged?
 Maximum Force            0.048362     0.000450     NO 
 RMS     Force            0.012029     0.000300     NO 
 Maximum Displacement     0.701788     0.001800     NO 
 RMS     Displacement     0.132437     0.001200     NO 
 Predicted change in Energy=-2.572050D-02
 Lowest energy point so far.  Saving SCF results.
 GradGradGradGradGradGradGradGradGradGradGradGradGradGradGradGradGradGrad

 Leave Link  103 at Thu Oct 24 13:33:41 2024, MaxMem=  4026531840 cpu:               0.6 elap:               0.1
 (Enter /opt/easybuild/software/Gaussian/16-AVX/g16/l202.exe)
                          Input orientation:                          
 ---------------------------------------------------------------------
 Center     Atomic      Atomic             Coordinates (Angstroms)
 Number     Number       Type             X           Y           Z
 ---------------------------------------------------------------------
      1          6           0       81.820299   79.128398   81.353529
      2          6           0       81.734779   80.347759   82.183865
      3          6           0       81.078086   81.563341   81.955500
      4          6           0       80.362752   81.776803   80.596361
      5          6           0       78.903296   81.320567   80.626384
      6          8           0       82.078720   80.091887   83.539852
      7          8           0       80.933191   82.442361   82.855107
      8          8           0       80.428990   83.144421   80.168968
      9          1           0       82.883411   80.567075   83.778706
     10          1           0       78.805047   80.298890   81.030324
     11          1           0       78.316069   82.022105   81.236858
     12          1           0       80.963087   81.190176   79.865570
     13          1           0       81.512533   78.226814   81.932694
     14          1           0       81.299695   79.168043   80.383097
     15          1           0       79.574774   83.340160   79.767201
     16          1           0       82.857297   78.893198   81.026296
     17          1           0       78.524203   81.308642   79.591062
 ---------------------------------------------------------------------
                    Distance matrix (angstroms):
                    1          2          3          4          5
     1  C    0.000000
     2  C    1.477705   0.000000
     3  C    2.615759   1.400370   0.000000
     4  C    3.116376   2.538659   1.550654   0.000000
     5  C    3.720653   3.374818   2.560312   1.529400   0.000000
     6  O    2.403143   1.422135   2.382565   3.801003   4.481212
     7  O    3.744870   2.341040   1.266082   2.422871   3.216536
     8  O    4.412183   3.685947   2.472414   1.434374   2.421449
     9  H    3.013549   1.977618   2.752422   4.236093   5.132855
    10  H    3.250578   3.149027   2.760705   2.190661   1.103016
    11  H    4.546073   3.922733   2.890613   2.158546   1.099849
    12  H    2.683238   2.584505   2.126096   1.112918   2.199677
    13  H    1.114901   2.147298   3.364770   3.963610   4.252749
    14  H    1.101971   2.196314   2.873850   2.780103   3.230368
    15  H    5.029687   4.411388   3.194633   1.937137   2.295176
    16  H    1.112549   2.171580   3.340461   3.837027   4.656842
    17  H    4.327124   4.237183   3.489664   2.147106   1.102609
                    6          7          8          9         10
     6  O    0.000000
     7  O    2.702931   0.000000
     8  O    4.837605   2.821781   0.000000
     9  H    0.964564   2.858862   5.069230   0.000000
    10  H    4.130074   3.528923   3.387650   4.925300   0.000000
    11  H    4.815294   3.105587   2.620003   5.425746   1.803116
    12  H    3.993898   3.241326   2.048507   4.403241   2.609248
    13  H    2.526267   4.354001   5.335508   3.280837   3.526790
    14  H    3.380158   4.119019   4.076218   3.999451   2.814425
    15  H    5.572603   3.490917   0.964062   5.893152   3.381905
    16  H    2.891539   4.432076   4.970370   3.221538   4.289140
    17  H    5.450507   4.212189   2.707817   6.090072   1.780435
                   11         12         13         14         15
    11  H    0.000000
    12  H    3.095034   0.000000
    13  H    5.010569   3.654641   0.000000
    14  H    4.216231   2.114275   1.825503   0.000000
    15  H    2.341260   2.561155   5.881375   4.556450   0.000000
    16  H    5.518800   3.195533   1.753287   1.707446   5.668840
    17  H    1.805823   2.457141   4.889889   3.593444   2.293859
                   16         17
    16  H    0.000000
    17  H    5.164298   0.000000
 Stoichiometry    C5H9O3(1-)
 Framework group  C1[X(C5H9O3)]
 Deg. of freedom    45
 Full point group                 C1      NOp   1
 RotChk:  IX=0 Diff= 6.37D-02
 Largest Abelian subgroup         C1      NOp   1
 Largest concise Abelian subgroup C1      NOp   1
                         Standard orientation:                         
 ---------------------------------------------------------------------
 Center     Atomic      Atomic             Coordinates (Angstroms)
 Number     Number       Type             X           Y           Z
 ---------------------------------------------------------------------
      1          6           0       -1.665287    1.517943   -0.368195
      2          6           0       -1.316168    0.095292   -0.173789
      3          6           0       -0.068689   -0.532537   -0.070530
      4          6           0        1.210847    0.323180   -0.257780
      5          6           0        1.716958    0.913152    1.059357
      6          8           0       -2.414993   -0.657755    0.324175
      7          8           0        0.062747   -1.737479    0.295262
      8          8           0        2.263226   -0.423008   -0.884784
      9          1           0       -2.695651   -1.313658   -0.324983
     10          1           0        0.910990    1.424877    1.611804
     11          1           0        2.142071    0.109082    1.677758
     12          1           0        0.916610    1.117795   -0.979305
     13          1           0       -2.377261    1.866569    0.415742
     14          1           0       -0.816571    2.214093   -0.465130
     15          1           0        3.079698   -0.148141   -0.452075
     16          1           0       -2.204787    1.710129   -1.322013
     17          1           0        2.491084    1.663019    0.826603
 ---------------------------------------------------------------------
 Rotational constants (GHZ):           3.1510861           1.3863782           1.1422987
 Leave Link  202 at Thu Oct 24 13:33:41 2024, MaxMem=  4026531840 cpu:               0.1 elap:               0.0
 (Enter /opt/easybuild/software/Gaussian/16-AVX/g16/l301.exe)
 Standard basis: def2SVP (5D, 7F)
 Ernie: Thresh=  0.10000D-02 Tol=  0.10000D-05 Strict=F.
 There are   165 symmetry adapted cartesian basis functions of A   symmetry.
 There are   157 symmetry adapted basis functions of A   symmetry.
   157 basis functions,   263 primitive gaussians,   165 cartesian basis functions
    32 alpha electrons       32 beta electrons
       nuclear repulsion energy       385.9620126477 Hartrees.
 IExCor=  402 DFT=T Ex+Corr=B3LYP ExCW=0 ScaHFX=  0.200000
 ScaDFX=  0.800000  0.720000  1.000000  0.810000 ScalE2=  1.000000  1.000000
 IRadAn=      5 IRanWt=     -1 IRanGd=            0 ICorTp=0 IEmpDi=  4
 NAtoms=   17 NActive=   17 NUniq=   17 SFac= 1.00D+00 NAtFMM=   60 NAOKFM=F Big=F
 Integral buffers will be    131072 words long.
 Raffenetti 2 integral format.
 Two-electron integral symmetry is turned on.
 Leave Link  301 at Thu Oct 24 13:33:41 2024, MaxMem=  4026531840 cpu:               0.4 elap:               0.1
 (Enter /opt/easybuild/software/Gaussian/16-AVX/g16/l302.exe)
 NPDir=0 NMtPBC=     1 NCelOv=     1 NCel=       1 NClECP=     1 NCelD=      1
         NCelK=      1 NCelE2=     1 NClLst=     1 CellRange=     0.0.
 One-electron integrals computed using PRISM.
 One-electron integral symmetry used in STVInt
   1 Symmetry operations used in ECPInt.
 ECPInt:  NShTT=    2850 NPrTT=   10142 LenC2=    2822 LenP2D=    8043.
 LDataN:  DoStor=T MaxTD1= 4 Len=   56
 NBasis=   157 RedAO= T EigKep=  1.32D-03  NBF=   157
 NBsUse=   157 1.00D-06 EigRej= -1.00D+00 NBFU=   157
 Precomputing XC quadrature grid using
 IXCGrd= 4 IRadAn=           5 IRanWt=          -1 IRanGd=           0 AccXCQ= 0.00D+00.
 Generated NRdTot=       0 NPtTot=           0 NUsed=           0 NTot=          32
 NSgBfM=   165   165   165   165   165 MxSgAt=    17 MxSgA2=    17.
 Leave Link  302 at Thu Oct 24 13:33:41 2024, MaxMem=  4026531840 cpu:               1.4 elap:               0.2
 (Enter /opt/easybuild/software/Gaussian/16-AVX/g16/l303.exe)
 DipDrv:  MaxL=1.
 Leave Link  303 at Thu Oct 24 13:33:41 2024, MaxMem=  4026531840 cpu:               0.2 elap:               0.0
 (Enter /opt/easybuild/software/Gaussian/16-AVX/g16/l401.exe)
 Initial guess from the checkpoint file:  "gau_job.chk"
 B after Tr=     0.000000   -0.000000    0.000000
         Rot=    0.999824   -0.011025   -0.001136   -0.015107 Ang=  -2.15 deg.
 Guess basis will be translated and rotated to current coordinates.
 JPrj=2 DoOrth=T DoCkMO=T.
 Generating alternative initial guess.
 ExpMin= 1.22D-01 ExpMax= 2.27D+03 ExpMxC= 3.41D+02 IAcc=3 IRadAn=         5 AccDes= 0.00D+00
 Harris functional with IExCor=  402 and IRadAn=       5 diagonalized for initial guess.
 HarFok:  IExCor=  402 AccDes= 0.00D+00 IRadAn=         5 IDoV= 1 UseB2=F ITyADJ=14
 ICtDFT=  3500011 ScaDFX=  1.000000  1.000000  1.000000  1.000000
 FoFCou: FMM=F IPFlag=           0 FMFlag=      100000 FMFlg1=           0
         NFxFlg=           0 DoJE=T BraDBF=F KetDBF=T FulRan=T
         wScrn=  0.000000 ICntrl=       500 IOpCl=  0 I1Cent=   200000004 NGrid=           0
         NMat0=    1 NMatS0=      1 NMatT0=    0 NMatD0=    1 NMtDS0=    0 NMtDT0=    0
 Petite list used in FoFCou.
 Harris En= -421.516197370769    
 Leave Link  401 at Thu Oct 24 13:33:42 2024, MaxMem=  4026531840 cpu:               5.8 elap:               0.7
 (Enter /opt/easybuild/software/Gaussian/16-AVX/g16/l502.exe)
 Integral symmetry usage will be decided dynamically.
 Closed shell SCF:
 Using DIIS extrapolation, IDIIS=  1040.
 NGot=  4026531840 LenX=  4026474155 LenY=  4026446489
 Requested convergence on RMS density matrix=1.00D-08 within 128 cycles.
 Requested convergence on MAX density matrix=1.00D-06.
 Requested convergence on             energy=1.00D-06.
 No special actions if energy rises.
 Fock matrices will be formed incrementally for  20 cycles.
 Integral accuracy reduced to 1.0D-05 until final iterations.

 Cycle   1  Pass 0  IDiag  1:
 FoFJK:  IHMeth= 1 ICntrl=       0 DoSepK=F KAlg= 0 I1Cent=           0 FoldK=F
 IRaf= 970000000 NMat=       1 IRICut=       1 DoRegI=T DoRafI=F ISym2E= 0 IDoP0=0 IntGTp=1.
 FoFCou: FMM=F IPFlag=           0 FMFlag=      100000 FMFlg1=           0
         NFxFlg=           0 DoJE=F BraDBF=F KetDBF=F FulRan=T
         wScrn=  0.000000 ICntrl=         0 IOpCl=  0 I1Cent=           0 NGrid=           0
         NMat0=    1 NMatS0=      1 NMatT0=    0 NMatD0=    1 NMtDS0=    0 NMtDT0=    0
 Symmetry not used in FoFCou.
 E= -421.197228536515    
 DIIS: error= 1.93D-02 at cycle   1 NSaved=   1.
 NSaved= 1 IEnMin= 1 EnMin= -421.197228536515     IErMin= 1 ErrMin= 1.93D-02
 ErrMax= 1.93D-02  0.00D+00 EMaxC= 1.00D-01 BMatC= 4.96D-02 BMatP= 4.96D-02
 IDIUse=3 WtCom= 8.07D-01 WtEn= 1.93D-01
 Coeff-Com:  0.100D+01
 Coeff-En:   0.100D+01
 Coeff:      0.100D+01
 Recover alternate guess density for next cycle.
 RMSDP=6.96D-03 MaxDP=1.19D-01              OVMax= 0.00D+00

 Cycle   2  Pass 0  IDiag  1:
 RMSU=  6.81D-03    CP:  9.48D-01
 E= -420.914713564978     Delta-E=        0.282514971537 Rises=F Damp=F
 Switch densities from cycles 1 and 2 for lowest energy.
 DIIS: error= 3.37D-02 at cycle   2 NSaved=   2.
 NSaved= 2 IEnMin= 1 EnMin= -421.197228536515     IErMin= 1 ErrMin= 1.93D-02
 ErrMax= 3.37D-02  0.00D+00 EMaxC= 1.00D+00 BMatC= 3.58D-01 BMatP= 4.96D-02
 IDIUse=1 WtCom= 1.00D+00 WtEn= 0.00D+00
 Coeff-Com:  0.895D+00 0.105D+00
 Coeff:      0.895D+00 0.105D+00
 Gap=     0.201 Goal=   None    Shift=    0.000
 RMSDP=3.49D-03 MaxDP=1.16D-01 DE= 2.83D-01 OVMax= 1.81D-01

 Cycle   3  Pass 0  IDiag  1:
 RMSU=  3.23D-03    CP:  9.87D-01  1.86D-01
 E= -421.256452016546     Delta-E=       -0.341738451568 Rises=F Damp=F
 DIIS: error= 4.98D-03 at cycle   3 NSaved=   3.
 NSaved= 3 IEnMin= 3 EnMin= -421.256452016546     IErMin= 3 ErrMin= 4.98D-03
 ErrMax= 4.98D-03  0.00D+00 EMaxC= 1.00D+00 BMatC= 1.12D-02 BMatP= 4.96D-02
 IDIUse=1 WtCom= 1.00D+00 WtEn= 0.00D+00
 Coeff-Com:  0.151D-01 0.137D+00 0.848D+00
 Coeff:      0.151D-01 0.137D+00 0.848D+00
 Gap=     0.132 Goal=   None    Shift=    0.000
 RMSDP=9.56D-04 MaxDP=2.25D-02 DE=-3.42D-01 OVMax= 1.98D-02

 Cycle   4  Pass 0  IDiag  1:
 RMSU=  5.71D-04    CP:  9.80D-01  2.90D-01  9.28D-01
 E= -421.264015942589     Delta-E=       -0.007563926042 Rises=F Damp=F
 DIIS: error= 2.61D-03 at cycle   4 NSaved=   4.
 NSaved= 4 IEnMin= 4 EnMin= -421.264015942589     IErMin= 4 ErrMin= 2.61D-03
 ErrMax= 2.61D-03  0.00D+00 EMaxC= 1.00D+00 BMatC= 1.88D-03 BMatP= 1.12D-02
 IDIUse=1 WtCom= 1.00D+00 WtEn= 0.00D+00
 Coeff-Com: -0.186D-01 0.680D-01 0.447D+00 0.504D+00
 Coeff:     -0.186D-01 0.680D-01 0.447D+00 0.504D+00
 Gap=     0.135 Goal=   None    Shift=    0.000
 RMSDP=3.89D-04 MaxDP=8.10D-03 DE=-7.56D-03 OVMax= 1.41D-02

 Cycle   5  Pass 0  IDiag  1:
 RMSU=  2.86D-04    CP:  9.81D-01  3.04D-01  9.16D-01  5.74D-01
 E= -421.265486044810     Delta-E=       -0.001470102221 Rises=F Damp=F
 DIIS: error= 6.65D-04 at cycle   5 NSaved=   5.
 NSaved= 5 IEnMin= 5 EnMin= -421.265486044810     IErMin= 5 ErrMin= 6.65D-04
 ErrMax= 6.65D-04  0.00D+00 EMaxC= 1.00D+00 BMatC= 1.49D-04 BMatP= 1.88D-03
 IDIUse=1 WtCom= 1.00D+00 WtEn= 0.00D+00
 Coeff-Com: -0.595D-02 0.135D-01 0.949D-01 0.244D+00 0.653D+00
 Coeff:     -0.595D-02 0.135D-01 0.949D-01 0.244D+00 0.653D+00
 Gap=     0.135 Goal=   None    Shift=    0.000
 RMSDP=1.40D-04 MaxDP=2.89D-03 DE=-1.47D-03 OVMax= 7.58D-03

 Cycle   6  Pass 0  IDiag  1:
 RMSU=  8.34D-05    CP:  9.81D-01  3.00D-01  9.25D-01  6.58D-01  6.73D-01
 E= -421.265600290543     Delta-E=       -0.000114245733 Rises=F Damp=F
 DIIS: error= 2.60D-04 at cycle   6 NSaved=   6.
 NSaved= 6 IEnMin= 6 EnMin= -421.265600290543     IErMin= 6 ErrMin= 2.60D-04
 ErrMax= 2.60D-04  0.00D+00 EMaxC= 1.00D+00 BMatC= 2.29D-05 BMatP= 1.49D-04
 IDIUse=1 WtCom= 1.00D+00 WtEn= 0.00D+00
 Coeff-Com: -0.317D-02 0.567D-02 0.355D-01 0.123D+00 0.397D+00 0.442D+00
 Coeff:     -0.317D-02 0.567D-02 0.355D-01 0.123D+00 0.397D+00 0.442D+00
 Gap=     0.135 Goal=   None    Shift=    0.000
 RMSDP=5.74D-05 MaxDP=1.59D-03 DE=-1.14D-04 OVMax= 3.36D-03

 Cycle   7  Pass 0  IDiag  1:
 RMSU=  3.30D-05    CP:  9.80D-01  3.02D-01  9.24D-01  6.58D-01  7.31D-01
                    CP:  5.13D-01
 E= -421.265620540356     Delta-E=       -0.000020249812 Rises=F Damp=F
 DIIS: error= 1.01D-04 at cycle   7 NSaved=   7.
 NSaved= 7 IEnMin= 7 EnMin= -421.265620540356     IErMin= 7 ErrMin= 1.01D-04
 ErrMax= 1.01D-04  0.00D+00 EMaxC= 1.00D+00 BMatC= 2.98D-06 BMatP= 2.29D-05
 IDIUse=1 WtCom= 1.00D+00 WtEn= 0.00D+00
 Coeff-Com: -0.263D-03-0.909D-04-0.150D-02 0.203D-01 0.108D+00 0.280D+00
 Coeff-Com:  0.593D+00
 Coeff:     -0.263D-03-0.909D-04-0.150D-02 0.203D-01 0.108D+00 0.280D+00
 Coeff:      0.593D+00
 Gap=     0.135 Goal=   None    Shift=    0.000
 RMSDP=1.57D-05 MaxDP=3.65D-04 DE=-2.02D-05 OVMax= 6.89D-04

 Cycle   8  Pass 0  IDiag  1:
 RMSU=  8.90D-06    CP:  9.81D-01  3.02D-01  9.24D-01  6.64D-01  7.37D-01
                    CP:  5.92D-01  6.94D-01
 E= -421.265623086481     Delta-E=       -0.000002546125 Rises=F Damp=F
 DIIS: error= 2.26D-05 at cycle   8 NSaved=   8.
 NSaved= 8 IEnMin= 8 EnMin= -421.265623086481     IErMin= 8 ErrMin= 2.26D-05
 ErrMax= 2.26D-05  0.00D+00 EMaxC= 1.00D+00 BMatC= 1.38D-07 BMatP= 2.98D-06
 IDIUse=1 WtCom= 1.00D+00 WtEn= 0.00D+00
 Coeff-Com: -0.311D-04-0.326D-03-0.272D-02 0.425D-02 0.368D-01 0.124D+00
 Coeff-Com:  0.302D+00 0.536D+00
 Coeff:     -0.311D-04-0.326D-03-0.272D-02 0.425D-02 0.368D-01 0.124D+00
 Coeff:      0.302D+00 0.536D+00
 Gap=     0.135 Goal=   None    Shift=    0.000
[...]
   yy         0.812851D+02      0.120452D+02      0.134021D+02
   zx         0.573474D+01      0.849801D+00      0.945531D+00
   zy         0.430894D+01      0.638519D+00      0.710448D+00
   zz         0.737135D+02      0.109232D+02      0.121537D+02

 ----------------------------------------------------------------------
 1\1\GINC-IE02\Freq\RB3LYP\def2SVP\C5H9O3(1-)\CCASTILLO\24-Oct-2024\0\\
 #P Geom=AllCheck Guess=TCheck SCRF=Check GenChk RB3LYP/def2SVP Freq\\G
 aussian run using SANDER external interface, route from template gau_j
 ob.tpl\\-1,1\C,81.818191104,79.0447479661,81.3860480694\C,81.738318886
 3,80.3577760433,82.0797145829\C,81.1033088597,81.5110411664,81.7128745
 988\C,80.2488846822,81.6974321395,80.4363636632\C,78.827184941,81.1369
 361547,80.6059046247\O,82.4486292226,80.4184839928,83.287843207\O,81.1
 806710243,82.5952708517,82.443175448\O,80.1979388415,83.0862683126,80.
 2045805619\H,82.28488474,81.3572937027,83.5224847002\H,78.8310135941,8
 0.0405185277,80.7292787586\H,78.3720483218,81.5852795369,81.5047111912
 \H,80.7205107657,81.190204521,79.5672589281\H,81.3628993754,78.2120159
 497,81.9692563102\H,81.3117340871,79.0744632416,80.4083061211\H,80.559
 729964,83.3915312246,81.0897188908\H,82.8724062726,78.7341139481,81.20
 91726055\H,78.1978755104,81.3972652608,79.7346827781\\Version=ES64L-G1
 6RevB.01\State=1-A\HF=-421.3178952\RMSD=1.732e-09\RMSF=2.302e-05\ZeroP
 oint=0.1364765\Thermal=0.1454642\Dipole=-0.4793837,-0.8797873,-0.61461
 72\DipoleDeriv=0.288285,-0.0566021,-0.1079115,-0.1645074,0.5984593,-0.
 0879863,-0.1570232,0.0446805,0.0790053,0.0700334,0.0087034,0.4428797,0
 .0593143,-0.4505414,0.0350401,0.5269991,-0.08796,0.5393056,0.0144091,-
 0.2133227,0.0975031,-0.316919,1.2448441,0.2121787,0.1154017,0.4756719,
 0.2164186,0.507609,0.0196533,-0.1134141,0.106662,0.7528108,0.0412458,-
 0.1267623,-0.1270616,0.2389191,-0.0654721,-0.1127086,0.0735212,-0.0805
 571,0.0641142,-0.0026709,0.0528204,0.015111,0.1168817,-0.6996392,0.136
 699,-0.4105725,0.0575458,-0.4114016,0.0385086,-0.5436801,0.1943902,-1.
 0374047,-0.5634173,0.0361563,-0.1974296,0.3373937,-1.6084084,-0.062356
 1,-0.0725069,-0.6231346,-0.8393002,-0.6185385,0.0639874,-0.1206561,-0.
 1411396,-0.9646029,0.0116717,-0.1757681,0.3278395,-0.6709627,0.2955777
 ,0.0162214,0.0900252,-0.0586478,0.210045,-0.1230234,0.0583986,0.007005
 3,0.3265554,0.0309561,0.0026564,0.0063765,-0.0363575,-0.1891605,0.0229
 446,0.003399,0.021864,0.0298954,-0.0102443,0.0085469,0.0534362,0.06503
 38,0.0028357,-0.0633549,0.1048414,-0.056018,-0.0779967,-0.1134081,0.05
 58543,0.0882599,0.0290446,-0.0882905,-0.1128448,0.0670502,-0.0802434,-
 0.1975345,-0.0185676,-0.1205116,0.0672347,-0.0157357,-0.4101458,0.0957
 155,0.0587556,0.168796,-0.0443222,0.0066161,-0.0263272,-0.0918494,0.00
 10592,0.042822,0.0118905,-0.0757105,-0.0310426,-0.1248552,0.3521034,-0
 .1232021,0.1859131,-0.0362657,0.3414315,-0.0362975,0.2764892,-0.254234
 5,0.5703603,-0.3113308,0.2537823,0.0925317,0.1469275,-0.163113,-0.0342
 712,0.0706664,-0.0529991,0.0277623,-0.1649719,0.0504138,-0.155848,0.04
 71491,0.0283016,0.0536097,-0.1833704,0.0573354,-0.1527275\Polar=67.840
 7191,-12.9368048,86.6930589,11.6776308,-1.0817097,64.4586194\Quadrupol
 e=1.7300505,-2.1354259,0.4053755,3.6436516,-4.5349656,3.745633\PG=C01 
 [X(C5H9O3)]\NImag=0\\0.50992204,-0.00243651,0.48765377,0.03727298,-0.0
 0642889,0.54779678,-0.06735870,0.01034149,-0.00843219,0.28720841,0.018
 52245,-0.20105247,-0.06093530,-0.20316599,0.73765747,-0.00315118,-0.07
 050525,-0.10964710,0.19843216,0.04947911,0.45045132,-0.00219751,0.0006
 1103,0.00893855,-0.13343998,0.14300995,-0.07436471,0.33288538,0.007771
 18,-0.03062743,-0.00079418,0.16330294,-0.32437933,0.10207019,-0.183265
 97,0.76661816,0.01325436,-0.01287470,0.00594109,-0.06137798,0.06771751
 ,-0.10097143,0.18509748,0.02971165,0.46685338,-0.00215110,-0.00119114,
 0.00114895,-0.01111247,0.00333027,-0.01123875,-0.09552395,0.00868531,-
 0.03403776,0.45439473,-0.00039067,-0.00036729,0.00128239,0.01338875,0.
 00198483,0.01844282,0.01561571,-0.07221333,0.01969800,-0.01878830,0.51
 008529,0.00122276,0.00198107,0.00083768,-0.00708993,0.00978210,-0.0076
 2427,-0.03287638,0.00270975,-0.11657803,-0.03561270,0.08249368,0.52587
 221,-0.00041960,-0.00045728,0.00019453,0.00116984,-0.00092892,0.000593
 61,-0.02123496,-0.00414815,-0.00875054,-0.16910692,-0.02814892,0.01848
 249,0.45653465,-0.00023691,0.00067730,0.00048217,-0.00108638,-0.000482
 09,0.00127461,0.00124848,0.00347551,-0.00470556,-0.02004556,-0.0721020
 9,0.00131834,-0.03825311,0.56059498,-0.00025242,-0.00091997,-0.0003498
 6,-0.00042816,-0.00096222,0.00022505,-0.02448741,-0.00850406,0.0050911
 5,0.01089280,0.00010948,-0.07904548,0.01039958,0.00624111,0.56037915,-
 0.00064093,0.00163455,-0.00267457,-0.09747620,0.02974578,-0.09373763,-
 0.01910237,-0.00283784,-0.04058137,0.00903213,0.00358713,0.00104723,0.
 00027366,0.00048262,0.00033145,0.14598615,-0.01888132,-0.00317162,-0.0
 3484360,0.00524265,-0.08663843,-0.02482915,0.01834817,-0.01301426,0.01
 945261,0.00313592,-0.00379759,-0.00192825,-0.00004128,-0.00026712,0.00
 082351,-0.09834321,0.49882099,-0.01438611,-0.00045190,-0.02390517,-0.1
 0601429,0.01758488,-0.19847808,-0.02887788,-0.01599921,-0.05029710,-0.
 00022071,-0.00293374,0.00980876,-0.00122771,0.00119763,-0.00241464,0.1
 3252799,0.09226964,0.30301878,0.00625729,0.00360881,-0.00538925,0.0068
 8544,0.02033659,-0.00013694,-0.06737125,-0.00432189,-0.02580006,0.0027
 8925,-0.01065403,-0.01923453,-0.00055274,-0.00013806,0.00066038,-0.001
 25532,0.00955276,0.01112477,0.06206562,0.00408438,0.00882549,0.0061524
 3,0.00480013,-0.07450010,-0.04243579,-0.00421863,-0.30216279,-0.148082
 09,-0.00759893,-0.01861549,-0.01924831,0.00127915,0.00090204,-0.000627
 15,0.00343830,0.00198185,0.01017853,-0.00222610,0.38400742,-0.00570316
 ,0.00474907,0.00534008,-0.00936710,-0.01692678,-0.00972582,-0.02198313
 ,-0.14088119,-0.17431995,-0.01521848,-0.01609123,-0.04125465,0.0020049
 4,-0.00068928,-0.00214304,0.00722038,0.02068694,0.02052273,0.04284747,
 0.18884602,0.22220018,0.00017619,-0.00090680,-0.00072025,-0.00019422,0
 .00006468,-0.00129854,-0.00041588,0.01611759,-0.01351788,-0.07521756,0
 .00201598,-0.00793945,0.00496471,-0.03687019,0.00464960,-0.00191705,0.
 00182944,-0.00077094,-0.00021497,0.01318451,-0.01408177,0.12521436,-0.
 00085115,-0.00050099,-0.00046089,-0.00178474,0.00756206,0.00275733,0.0
 0892147,-0.04074687,0.01434082,0.01368640,-0.21767484,0.03977959,-0.00
 945957,-0.03981854,0.00746244,0.00306875,0.00044951,0.00348687,-0.0040
 8617,0.01346064,-0.01255633,0.02461065,0.38429442,-0.00018463,-0.00214
 921,-0.00144159,-0.00164563,0.00241080,-0.00185568,-0.00865371,0.01680
 969,-0.02316471,-0.00517908,0.00102863,-0.09629006,0.00051201,0.005940
 14,0.00366277,-0.00312587,0.00384043,-0.00076192,-0.01820364,0.0294436
 8,-0.02618476,0.14169275,0.02988235,0.40024073,-0.00232058,-0.00054109
 ,-0.00360996,0.00508371,-0.01823042,-0.00885635,-0.00053588,-0.0077309
 5,-0.01302416,-0.00035343,-0.00139741,0.00172688,-0.00031449,0.0000814
 8,-0.00017509,-0.03666645,0.08064347,0.00721521,-0.00007920,-0.0014910
 7,0.01115392,0.00120135,0.00101209,0.00250305,0.03512806,-0.00004154,0
 .00108220,0.00127146,-0.00673855,-0.01503806,-0.02203979,0.00658004,0.
 01611631,0.01632408,-0.00184333,0.00048558,-0.00372878,0.00028107,-0.0
 0016482,0.00000933,0.06335067,-0.39807333,-0.10176683,-0.00862552,-0.0
 0513867,-0.01450502,-0.00095001,-0.00283984,-0.00241142,-0.05410758,0.
 40610015,-0.00327380,-0.00033713,-0.00584998,-0.00190838,-0.04193576,-
 0.02182721,-0.00525213,-0.00550168,-0.00653942,0.00057548,-0.00080297,
 -0.00063931,0.00004472,0.00001421,0.00027828,-0.00250155,-0.07273620,-
 0.05793354,0.00643638,-0.00180432,0.00281528,0.00081437,0.00010370,0.0
 0185629,0.00599116,0.12221931,0.08995689,-0.00037162,0.00043731,-0.000
 36544,-0.00008692,0.00018187,-0.00054636,0.00123152,-0.00088973,0.0002
 6882,0.00697777,-0.02650933,0.00096415,-0.04698518,0.00655842,-0.00029
 762,0.00004299,0.00030198,0.00031957,-0.00022670,0.00108344,-0.0002980
 2,-0.00623669,-0.00623815,0.00018543,0.00008793,-0.00014122,0.00004606
 ,0.04674215,0.00022627,-0.00001668,-0.00041168,0.00027828,0.00079162,-
 0.00068764,0.00114926,-0.00167032,0.00036611,0.00569882,-0.00952295,-0
 .00058945,0.00362594,-0.30377578,0.02823562,-0.00008562,0.00041928,0.0
 0007977,-0.00060496,0.00181542,-0.00030614,-0.00499776,-0.00235732,0.0
 0007884,0.00010465,-0.00025344,0.00011477,-0.00422222,0.32880881,-0.00
 019223,0.00017752,0.00026383,0.00018141,0.00037173,-0.00034665,0.00026
 254,-0.00079393,-0.00025557,-0.00130159,0.00338674,-0.00247141,0.00017
 099,0.02918810,-0.04884792,-0.00000583,-0.00004134,0.00001744,-0.00044
 292,0.00007026,0.00039047,0.00081657,0.00086760,0.00233259,-0.00002678
 ,-0.00002416,-0.00001571,0.00000922,-0.03228327,0.04706591,0.00008806,
 0.00013930,0.00020483,0.00039323,-0.00004451,-0.00074008,0.00142412,0.
 00259444,0.00319215,-0.01604903,0.01471344,0.02637211,-0.08496811,0.04
 390271,0.08446957,-0.00012638,-0.00011320,0.00003074,0.00143286,-0.001
 24474,-0.00156138,0.00349842,0.00037473,-0.00270830,-0.00007150,0.0001
 0425,-0.00008479,-0.00091271,-0.00062441,-0.00096512,0.09459436,0.0001
 0653,-0.00002883,-0.00020499,0.00022700,-0.00029387,-0.00022161,-0.000
 21327,0.00063698,0.00042750,-0.00497088,0.00330416,0.00896506,0.045670
 68,-0.09074653,-0.08980722,-0.00007226,-0.00005049,0.00016124,0.000769
 87,-0.00027729,0.00017469,0.00137131,0.00175738,0.00013931,0.00001989,
 0.00014237,-0.00009003,0.01207413,-0.01042659,-0.02489780,-0.04799367,
 0.09288536,-0.00010848,0.00015283,0.00004630,-0.00009871,-0.00004482,0
 .00009282,-0.00142656,0.00042277,0.00006487,0.00257584,-0.00298367,-0.
 00368769,0.08647482,-0.09022588,-0.22391785,0.00021789,-0.00003997,0.0
 0025629,0.00026924,0.00067382,0.00060065,-0.00135936,0.00110628,0.0009
 7714,-0.00003581,0.00003944,-0.00004953,-0.00266798,0.00252338,0.00436
 458,-0.09531090,0.09766487,0.23805180,0.00006826,0.00034096,-0.0000024
 1,0.00102883,0.00028518,0.00051729,0.00741255,-0.00738900,-0.01291355,
 -0.09000624,0.04112845,0.08011500,-0.01702831,0.01057246,0.02656337,-0
 .00086612,-0.00045973,-0.00035779,-0.00123091,-0.00085534,-0.00227825,
 0.00531372,0.00456693,-0.00151659,0.00001931,0.00007987,-0.00002341,0.
 00098636,-0.00047209,-0.00022761,-0.00594160,-0.00230526,0.00083248,0.
 10085712,0.00063000,-0.00066105,0.00009396,-0.00034864,-0.00080524,0.0
 0048757,-0.00274430,0.00289716,-0.00043634,0.04102459,-0.08257752,-0.0
 7304876,-0.00562613,0.00641767,0.00769891,-0.00025864,0.00053560,-0.00
 042270,-0.00009861,0.00271247,0.00025558,0.00856595,-0.03444113,-0.025
 24346,0.00021457,-0.00011052,0.00010990,0.00100070,0.00087043,-0.00027
 209,-0.00309162,0.00004195,0.00058610,-0.04592319,0.10998639,-0.000351
 65,-0.00095616,-0.00086050,-0.00041329,-0.00083465,0.00119592,0.009314
 97,-0.01292113,-0.01442024,0.08237156,-0.07621417,-0.19803557,0.002008
 09,-0.00232655,-0.00405235,-0.00149565,0.00060355,-0.00116058,-0.00218
 094,0.00175236,-0.00285163,-0.00535719,-0.00027042,0.01179324,0.000385
 31,-0.00008603,0.00015374,0.00046411,0.00044038,0.00002796,0.00106765,
 0.00048665,0.00111021,-0.08778121,0.08732439,0.20567909,-0.08473823,-0
 .06884291,0.05380159,0.00606341,0.00190019,-0.00569694,-0.00029243,0.0
 0197203,0.00012835,0.00046473,0.00012328,-0.00019326,0.00023811,0.0002
 1434,0.00018903,-0.00061872,0.00003407,0.00073409,-0.00048682,-0.00082
 189,-0.00020806,-0.00003590,0.00015938,0.00018548,0.00015785,-0.000184
 70,-0.00009886,-0.00010679,-0.00021023,-0.00008217,-0.00005213,-0.0000
 0067,-0.00000052,0.00003114,-0.00017349,0.00021426,0.08928260,-0.06995
 049,-0.15835146,0.09343458,-0.00171284,-0.03388441,0.01323701,-0.00757
 637,0.00609130,0.00022978,-0.00110384,-0.00005559,-0.00105157,0.000148
 36,-0.00052736,0.00043698,-0.00026617,0.00423489,-0.00106761,0.0026185
 5,-0.00606449,-0.00448493,0.00082784,0.00018476,0.00115296,0.00086251,
 -0.00093219,0.00080514,0.00000603,0.00014460,0.00001792,-0.00007286,-0
 .00002142,-0.00009298,0.00000322,0.00042083,0.00056997,0.07533943,0.18
 399482,0.05183353,0.08810710,-0.11532019,-0.00972392,-0.01096936,0.012
 98798,-0.00086523,-0.00091144,-0.00108671,0.00060431,-0.00025453,0.000
 32838,-0.00006155,0.00014769,-0.00015691,0.00170284,0.00191134,0.00200
 865,0.00098388,-0.00005680,-0.00029957,-0.00030548,0.00026604,0.000125
 16,0.00043267,0.00001367,-0.00002881,0.00004983,0.00006835,0.00001614,
 -0.00004741,-0.00001000,0.00004481,0.00010679,-0.00033231,0.00019085,-
 0.06006583,-0.09948974,0.11857136,-0.10035740,0.00487683,-0.10980564,-
 0.00098587,-0.00141331,0.00308833,-0.00081346,0.00050880,-0.00012598,0
 .00024063,0.00031713,-0.00063203,-0.00024199,0.00037414,0.00000576,0.0
 0147355,0.00000976,-0.00029619,0.00024538,-0.00070526,-0.00004679,-0.0
 0004896,0.00019101,0.00039231,0.00054135,0.00042223,-0.00026343,-0.000
 37367,0.00019053,0.00005831,-0.00004299,-0.00012703,0.00002892,-0.0000
 9106,0.00034297,0.00039168,0.00616496,0.00053893,0.01222520,0.10551874
 ,0.00642795,-0.04657191,0.00922246,-0.01590284,0.00674779,-0.02330070,
 0.00000602,0.00074749,0.00073365,0.00121545,-0.00130085,-0.00077981,0.
 00022691,0.00000703,0.00036799,0.00101743,-0.00600645,-0.00296322,0.00
 020013,-0.00027121,0.00023275,-0.00013918,0.00077106,0.00045329,-0.000
 76777,0.00024363,-0.00167625,0.00007128,-0.00005370,-0.00004534,-0.000
 16568,0.00004142,0.00001142,0.00013787,-0.00048086,0.00101749,0.011456
 10,-0.00074824,0.01846132,-0.00595438,0.04847024,-0.10875738,0.0061454
 0,-0.25362146,-0.00730374,0.00410801,-0.01215745,-0.00085944,0.0014008
 9,0.00016215,-0.00012217,-0.00006413,-0.00049862,0.00000939,-0.0006234
 8,0.00026620,0.00131642,-0.00428117,-0.00027855,0.00063227,-0.00120877
 ,0.00000402,0.00033716,0.00056492,0.00071240,-0.00076659,0.00056089,-0
 .00079271,0.00022230,0.00043592,-0.00006920,-0.00010905,0.00014225,-0.
 00000377,-0.00029327,0.00056500,0.00051828,-0.00740634,-0.00001157,-0.
 01401727,0.12054807,-0.00802145,0.27400370,0.00043941,0.00146499,0.000
 57427,0.00045518,-0.00451950,-0.00149609,0.00240097,0.01646815,0.00253
 750,0.00342594,-0.01270266,0.00078088,-0.00065231,-0.00120979,-0.00125
 784,0.00054039,-0.00070316,0.00002119,-0.00876508,-0.01066843,0.006949
 63,-0.05967366,-0.03608312,-0.10601652,-0.00142490,0.00134093,-0.00046
 876,-0.00012253,0.00036848,0.00052059,-0.00031516,-0.00055439,0.000513
 72,-0.00140631,0.00582449,0.00095937,-0.00013230,-0.00066557,0.0000314
 5,-0.00015502,-0.00031858,-0.00034725,0.06518809,0.00028356,-0.0007809
 3,-0.00044779,0.00025531,-0.00019146,-0.00026733,0.00374320,-0.0165756
 0,0.00086140,-0.01441231,-0.03900890,-0.03715469,0.00028961,-0.0026349
 6,0.00011811,-0.00140297,0.00135590,-0.00105609,-0.00505754,-0.0014245
 0,-0.00793903,-0.02597668,-0.07212643,-0.06220285,0.00081311,-0.000937
 06,0.00064562,-0.00063389,-0.00007697,0.00034106,-0.00025479,0.0001522
 3,0.00001965,-0.00048335,-0.00485636,0.00079084,0.00004918,0.00049511,
 -0.00001842,0.00008546,0.00007419,0.00019397,0.04262378,0.13634340,0.0
 0041375,0.00193258,0.00120943,0.00214780,-0.00991180,-0.00320263,-0.00
 248768,0.02917279,0.01019914,0.00116573,-0.02684270,0.00708590,0.00046
 356,0.00419240,-0.00130928,-0.00001765,-0.00304292,-0.00116059,0.00858
 241,-0.02092549,0.00480372,-0.10384972,-0.08601298,-0.27344369,-0.0029
 0858,0.00444351,-0.00188765,0.00172016,0.00188637,-0.00062595,0.000529
 73,-0.00010041,0.00002702,-0.00187288,0.00262272,-0.00049621,-0.000171
 77,-0.00135345,0.00003529,-0.00021051,-0.00039222,-0.00051150,0.097040
 14,0.10591879,0.26016984,-0.25639617,0.05171732,0.02907430,0.00200094,
 0.01187880,-0.00217690,0.00014862,-0.00613091,0.00144578,-0.00001284,-
 0.00015053,-0.00010862,0.00012576,-0.00005519,0.00010784,0.00191952,-0
 .00091890,0.00231762,0.00033393,0.00352039,0.00155255,-0.00016608,0.00
 018521,-0.00079783,-0.00035575,0.00031886,-0.00024805,-0.00001983,-0.0
 0008428,-0.00003369,0.00006629,0.00004599,0.00001821,-0.00029187,0.000
 27852,-0.00010541,-0.01603623,0.00053158,0.00320042,-0.01107005,0.0024
 2908,0.00278939,0.00045932,-0.00025788,0.00078949,0.27946603,0.0547444
 2,-0.05611627,-0.00728628,0.03271951,-0.01764905,-0.00314886,0.0005263
 9,0.00561407,-0.00454979,-0.00001865,0.00004410,-0.00067946,-0.0000598
 7,-0.00020654,0.00016572,-0.00310416,0.00308002,0.00181888,-0.00159231
 ,-0.00561477,-0.00062558,0.00041957,0.00012284,0.00099270,0.00052378,-
 0.00066745,0.00087463,0.00006751,0.00014005,-0.00000819,-0.00010249,-0
 .00000013,-0.00002182,0.00013653,-0.00001379,0.00042878,-0.02088547,0.
 00493122,0.00304826,0.00031207,-0.00164847,-0.00012507,-0.00065774,0.0
 0022173,-0.00108898,-0.06328360,0.06768990,0.03233433,-0.00822476,-0.0
 5031709,0.01286573,-0.00773984,-0.00035275,-0.00009166,0.00211446,-0.0
 0121736,-0.00026110,-0.00006135,-0.00081466,0.00003132,-0.00033721,0.0
 0025840,0.00016717,0.00212266,0.00183131,-0.00052156,-0.00248208,-0.00
 065077,0.00026677,0.00023159,0.00043207,0.00003193,-0.00056566,0.00042
 530,0.00011232,0.00010219,-0.00005403,-0.00002484,0.00009506,-0.000033
 02,-0.00018143,0.00038515,0.00036515,0.01858136,-0.00252325,-0.0033207
 1,-0.02537057,0.00667706,0.00625258,-0.00034259,0.00011934,-0.00043785
 ,-0.03772416,0.01005463,0.04755724,0.00000058,-0.00079686,-0.00021029,
 0.00036538,-0.00095311,0.00080907,-0.00457549,-0.00070601,0.00420483,-
 0.01779164,0.00785198,-0.02702460,-0.12180213,0.03446053,-0.11137084,-
 0.00059888,0.00036258,-0.00213956,0.00017320,-0.00155992,-0.00098276,0
 .00375220,0.00172628,0.00256078,-0.00009739,0.00015455,0.00021497,-0.0
 0062607,-0.00034066,0.00125832,0.00698227,-0.00404796,0.01007720,0.001
 14511,0.00038282,0.00050834,0.00009675,0.00047170,-0.00010149,-0.00000
 413,0.00006021,0.00011023,-0.00026203,0.00033621,-0.00133396,-0.000171
 61,0.00025451,0.00012700,0.13341387,-0.00000815,0.00000816,-0.00012585
 ,0.00018391,0.00017074,-0.00031252,-0.00174119,-0.00080706,0.00078536,
 -0.00680381,0.00133248,-0.00882052,0.03560153,-0.06134870,0.04915142,0
 .00004564,0.00014126,-0.00011613,0.00031846,0.00036397,0.00006044,0.00
 083311,0.00190327,-0.00016588,-0.00000925,-0.00001486,-0.00000294,0.01
 685186,-0.00483646,0.02394519,-0.00812090,0.00288329,-0.00979143,0.000
 63650,0.00006395,0.00019469,-0.00012865,0.00008763,0.00001882,0.000030
 13,-0.00002117,0.00021840,-0.00000787,-0.00002940,-0.00049821,-0.00002
 447,0.00007252,0.00003201,-0.03765685,0.06003037,0.00002933,-0.0003975
 9,-0.00012226,0.00017622,-0.00119363,0.00123599,-0.00138763,0.00189464
 ,0.00053877,0.00385768,-0.00019326,0.00300684,-0.11135024,0.04891156,-
 0.20792366,-0.00039125,0.00003190,-0.00107379,0.00037304,-0.00024629,0
 .00075306,0.00062338,-0.00154891,0.00101003,-0.00003680,0.00024599,0.0
 0007808,-0.00018653,-0.00005353,-0.00179249,-0.01431492,0.00707544,-0.
 01794463,-0.00068654,-0.00037362,0.00084266,0.00008958,0.00019077,-0.0
 0007845,0.00001257,0.00000156,0.00003122,0.00000031,0.00007740,-0.0004
 5498,-0.00010096,0.00015044,0.00007620,0.12329276,-0.05457287,0.221817
 40\\0.00003297,-0.00000484,-0.00000153,-0.00003562,-0.00002326,0.00000
 592,-0.00001290,0.00004862,0.00002379,0.00002529,-0.00001087,-0.000000
 51,0.00001124,-0.00000147,-0.00000458,0.00000972,0.00007133,0.00002260
 ,0.00002141,-0.00004826,-0.00000506,0.00001608,0.00001730,0.00004945,-
 0.00000915,-0.00004941,-0.00003023,0.00000294,0.00000424,0.00000302,-0
 .00000633,0.00000109,0.00000293,0.00000339,-0.00000098,-0.00000548,-0.
 00001025,0.00000911,-0.00001315,-0.00001009,0.00000101,-0.00000779,-0.
 00003285,-0.00001620,-0.00005441,-0.00000652,0.00000038,0.00000735,0.0
 0000067,0.00000220,0.00000768\\\@


 The cat could very well be man's best friend
 but would never stoop to admitting it.
                               -- Doug Larson
 Job cpu time:       0 days  0 hours 11 minutes 26.3 seconds.
 Elapsed time:       0 days  0 hours  1 minutes 26.3 seconds.
 File lengths (MBytes):  RWF=     54 Int=      0 D2E=      0 Chk=      3 Scr=      1
 Normal termination of Gaussian 16 at Thu Oct 24 13:40:17 2024.
