[Molden Format]
[Title]
 Molden file created by orca_2mkl for BaseName=orca

[Atoms] AU
C    1   6         -5.5368975724        -0.2645616587         2.3432604061 
H    2   1         -6.8408086048         1.3228082937         2.3432604061 
H    3   1         -5.9526373219        -1.5684726912         0.7936849762 
H    4   1         -5.4046167430        -1.2661165097         4.1385002333 
C    5   6         -3.0802535983         0.8881712829         1.8141370886 
O    6   8         -3.0235618143         3.2125344277         1.4361918618 
N    7   7         -1.0393493737        -0.5669178402         1.8897261339 
H    8   1         -1.2472192484        -2.3054658834         2.6834111102 
C    9   6          1.5495754298         0.2834589201         1.2850137711 
H   10   1          1.5873699525         2.2109795767         1.9842124406 
C   11   6          3.2503289503        -1.3039110324         2.9479727689 
H   12   1          2.7967946782        -1.3417055551         4.9321852095 
H   13   1          3.3826097797        -3.2881234730         2.3999521901 
H   14   1          5.1589523456        -0.4913287948         2.9857672916 
C   15   6          2.1164932700         0.3212534428        -1.5306781685 
O   16   8          4.0251166653         1.5495754298        -2.2109795767 
N   17   7          0.5480205788        -0.6991986696        -3.2314316890 
H   18   1         -1.0582466350        -1.6629589979        -2.7778974169 
C   19   6          0.9070685443        -0.3779452268        -5.9715345832 
H   20   1          0.7180959309         1.6629589979        -6.2549935033 
H   21   1          2.7212056328        -1.0771438963        -6.6329387301 
H   22   1         -0.6047123629        -1.0393493737        -7.1998565702 
[GTO]
  1 0
s   6 1.0 
    13575.3496820000         0.5435905310
     2035.2333680000         1.0145543947
      463.2256235900         1.7315731970
      131.2001959800         2.6910376290
       42.8530158910         3.6044547126
       15.5841857660         3.7025556986
s   2 1.0 
        6.2067138508         1.8383540830
        2.5764896527         0.5447575605
s   1 1.0 
        0.5769633942         0.4718145038
s   1 1.0 
        0.2297283136         0.2364944676
s   1 1.0 
        0.0951644400         0.1221141848
p   4 1.0 
       34.6972322440         1.3596651507
        7.9582622826         1.4512589486
        2.3780826883         1.2709231419
        0.8143320818         0.8025721189
p   1 1.0 
        0.2888754725         0.3018758868
p   1 1.0 
        0.1005682367         0.0807265016
d   1 1.0 
        1.0970000000         3.3522135855
d   1 1.0 
        0.3180000000         0.3838994974
f   1 1.0 
        0.7610000000         3.0840084332

  2 0
s   3 1.0 
       34.0613410000         0.2556299169
        5.1235746000         0.4613599649
        1.1646626000         0.6811214941
s   1 1.0 
        0.3272304100         0.3083545312
s   1 1.0 
        0.1030724100         0.1296483265
p   1 1.0 
        0.8000000000         1.0784563492

  3 0
s   3 1.0 
       34.0613410000         0.2556299169
        5.1235746000         0.4613599649
        1.1646626000         0.6811214941
s   1 1.0 
        0.3272304100         0.3083545312
s   1 1.0 
        0.1030724100         0.1296483265
p   1 1.0 
        0.8000000000         1.0784563492

  4 0
s   3 1.0 
       34.0613410000         0.2556299169
        5.1235746000         0.4613599649
        1.1646626000         0.6811214941
s   1 1.0 
        0.3272304100         0.3083545312
s   1 1.0 
        0.1030724100         0.1296483265
p   1 1.0 
        0.8000000000         1.0784563492

  5 0
s   6 1.0 
    13575.3496820000         0.5435905310
     2035.2333680000         1.0145543947
      463.2256235900         1.7315731970
      131.2001959800         2.6910376290
       42.8530158910         3.6044547126
       15.5841857660         3.7025556986
s   2 1.0 
        6.2067138508         1.8383540830
        2.5764896527         0.5447575605
s   1 1.0 
        0.5769633942         0.4718145038
s   1 1.0 
        0.2297283136         0.2364944676
s   1 1.0 
        0.0951644400         0.1221141848
p   4 1.0 
       34.6972322440         1.3596651507
        7.9582622826         1.4512589486
        2.3780826883         1.2709231419
        0.8143320818         0.8025721189
p   1 1.0 
        0.2888754725         0.3018758868
p   1 1.0 
        0.1005682367         0.0807265016
d   1 1.0 
        1.0970000000         3.3522135855
d   1 1.0 
        0.3180000000         0.3838994974
f   1 1.0 
        0.7610000000         3.0840084332

  6 0
s   6 1.0 
    27032.3826310000         0.8598581479
     4052.3871392000         1.6055305368
      922.3272271000         2.7458778516
      261.2407098900         4.2987674426
       85.3546413510         5.8797663284
       31.0350352450         6.3163983216
s   2 1.0 
       12.2608607280         2.9812147522
        4.9987076005         0.9419559635
s   1 1.0 
        1.1703108158         0.8019291610
s   1 1.0 
        0.4647474099         0.4011648062
s   1 1.0 
        0.1850453636         0.2010799406
p   4 1.0 
       63.2749548010         3.0572017144
       14.6270493790         3.3844839414
        4.4501223456         2.9474262132
        1.5275799647         1.7118271494
p   1 1.0 
        0.5293511794         0.6436057926
p   1 1.0 
        0.1747842127         0.1610897254
d   1 1.0 
        2.3140000000        12.3767310624
d   1 1.0 
        0.6450000000         1.3234257612
f   1 1.0 
        1.4280000000        12.7097950062

  7 0
s   6 1.0 
    19730.8006470000         0.6956035199
     2957.8958745000         1.2986099328
      673.2213359500         2.2190880635
      190.6824949400         3.4636607549
       62.2954418980         4.6967555531
       22.6541611820         4.9522510945
s   2 1.0 
        8.9791477428         2.3880677979
        3.6863002370         0.7337878750
s   1 1.0 
        0.8466007680         0.6290267082
s   1 1.0 
        0.3364713377         0.3148626514
s   1 1.0 
        0.1364765367         0.1600308040
p   4 1.0 
       49.2003805100         2.1264813968
       11.3467905370         2.3279367185
        3.4273972411         2.0485729192
        1.1785525134         1.2607319854
p   1 1.0 
        0.4164220497         0.4768230427
p   1 1.0 
        0.1426082601         0.1249168256
d   1 1.0 
        1.6540000000         6.8771297418
d   1 1.0 
        0.4690000000         0.7577440909
f   1 1.0 
        1.0930000000         6.9645882147

  8 0
s   3 1.0 
       34.0613410000         0.2556299169
        5.1235746000         0.4613599649
        1.1646626000         0.6811214941
s   1 1.0 
        0.3272304100         0.3083545312
s   1 1.0 
        0.1030724100         0.1296483265
p   1 1.0 
        0.8000000000         1.0784563492

  9 0
s   6 1.0 
    13575.3496820000         0.5435905310
     2035.2333680000         1.0145543947
      463.2256235900         1.7315731970
      131.2001959800         2.6910376290
       42.8530158910         3.6044547126
       15.5841857660         3.7025556986
s   2 1.0 
        6.2067138508         1.8383540830
        2.5764896527         0.5447575605
s   1 1.0 
        0.5769633942         0.4718145038
s   1 1.0 
        0.2297283136         0.2364944676
s   1 1.0 
        0.0951644400         0.1221141848
p   4 1.0 
       34.6972322440         1.3596651507
        7.9582622826         1.4512589486
        2.3780826883         1.2709231419
        0.8143320818         0.8025721189
p   1 1.0 
        0.2888754725         0.3018758868
p   1 1.0 
        0.1005682367         0.0807265016
d   1 1.0 
        1.0970000000         3.3522135855
d   1 1.0 
        0.3180000000         0.3838994974
f   1 1.0 
        0.7610000000         3.0840084332

 10 0
s   3 1.0 
       34.0613410000         0.2556299169
        5.1235746000         0.4613599649
        1.1646626000         0.6811214941
s   1 1.0 
        0.3272304100         0.3083545312
s   1 1.0 
        0.1030724100         0.1296483265
p   1 1.0 
        0.8000000000         1.0784563492

 11 0
s   6 1.0 
    13575.3496820000         0.5435905310
     2035.2333680000         1.0145543947
      463.2256235900         1.7315731970
      131.2001959800         2.6910376290
       42.8530158910         3.6044547126
       15.5841857660         3.7025556986
s   2 1.0 
        6.2067138508         1.8383540830
        2.5764896527         0.5447575605
s   1 1.0 
        0.5769633942         0.4718145038
s   1 1.0 
        0.2297283136         0.2364944676
s   1 1.0 
        0.0951644400         0.1221141848
p   4 1.0 
       34.6972322440         1.3596651507
        7.9582622826         1.4512589486
        2.3780826883         1.2709231419
        0.8143320818         0.8025721189
p   1 1.0 
        0.2888754725         0.3018758868
p   1 1.0 
        0.1005682367         0.0807265016
d   1 1.0 
        1.0970000000         3.3522135855
d   1 1.0 
        0.3180000000         0.3838994974
f   1 1.0 
        0.7610000000         3.0840084332

 12 0
s   3 1.0 
       34.0613410000         0.2556299169
        5.1235746000         0.4613599649
        1.1646626000         0.6811214941
s   1 1.0 
        0.3272304100         0.3083545312
s   1 1.0 
        0.1030724100         0.1296483265
p   1 1.0 
        0.8000000000         1.0784563492

 13 0
s   3 1.0 
       34.0613410000         0.2556299169
        5.1235746000         0.4613599649
        1.1646626000         0.6811214941
s   1 1.0 
        0.3272304100         0.3083545312
s   1 1.0 
        0.1030724100         0.1296483265
p   1 1.0 
        0.8000000000         1.0784563492

 14 0
s   3 1.0 
       34.0613410000         0.2556299169
        5.1235746000         0.4613599649
        1.1646626000         0.6811214941
s   1 1.0 
        0.3272304100         0.3083545312
s   1 1.0 
        0.1030724100         0.1296483265
p   1 1.0 
        0.8000000000         1.0784563492

 15 0
s   6 1.0 
    13575.3496820000         0.5435905310
     2035.2333680000         1.0145543947
      463.2256235900         1.7315731970
      131.2001959800         2.6910376290
       42.8530158910         3.6044547126
       15.5841857660         3.7025556986
s   2 1.0 
        6.2067138508         1.8383540830
        2.5764896527         0.5447575605
s   1 1.0 
        0.5769633942         0.4718145038
s   1 1.0 
        0.2297283136         0.2364944676
s   1 1.0 
        0.0951644400         0.1221141848
p   4 1.0 
       34.6972322440         1.3596651507
        7.9582622826         1.4512589486
        2.3780826883         1.2709231419
        0.8143320818         0.8025721189
p   1 1.0 
        0.2888754725         0.3018758868
p   1 1.0 
        0.1005682367         0.0807265016
d   1 1.0 
        1.0970000000         3.3522135855
d   1 1.0 
        0.3180000000         0.3838994974
f   1 1.0 
        0.7610000000         3.0840084332

 16 0
s   6 1.0 
    27032.3826310000         0.8598581479
     4052.3871392000         1.6055305368
      922.3272271000         2.7458778516
      261.2407098900         4.2987674426
       85.3546413510         5.8797663284
       31.0350352450         6.3163983216
s   2 1.0 
       12.2608607280         2.9812147522
        4.9987076005         0.9419559635
s   1 1.0 
        1.1703108158         0.8019291610
s   1 1.0 
        0.4647474099         0.4011648062
s   1 1.0 
        0.1850453636         0.2010799406
p   4 1.0 
       63.2749548010         3.0572017144
       14.6270493790         3.3844839414
        4.4501223456         2.9474262132
        1.5275799647         1.7118271494
p   1 1.0 
        0.5293511794         0.6436057926
p   1 1.0 
        0.1747842127         0.1610897254
d   1 1.0 
        2.3140000000        12.3767310624
d   1 1.0 
        0.6450000000         1.3234257612
f   1 1.0 
        1.4280000000        12.7097950062

 17 0
s   6 1.0 
    19730.8006470000         0.6956035199
     2957.8958745000         1.2986099328
      673.2213359500         2.2190880635
      190.6824949400         3.4636607549
       62.2954418980         4.6967555531
       22.6541611820         4.9522510945
s   2 1.0 
        8.9791477428         2.3880677979
        3.6863002370         0.7337878750
s   1 1.0 
        0.8466007680         0.6290267082
s   1 1.0 
        0.3364713377         0.3148626514
s   1 1.0 
        0.1364765367         0.1600308040
p   4 1.0 
       49.2003805100         2.1264813968
       11.3467905370         2.3279367185
        3.4273972411         2.0485729192
        1.1785525134         1.2607319854
p   1 1.0 
        0.4164220497         0.4768230427
p   1 1.0 
        0.1426082601         0.1249168256
d   1 1.0 
        1.6540000000         6.8771297418
d   1 1.0 
        0.4690000000         0.7577440909
f   1 1.0 
        1.0930000000         6.9645882147

 18 0
s   3 1.0 
       34.0613410000         0.2556299169
        5.1235746000         0.4613599649
        1.1646626000         0.6811214941
s   1 1.0 
        0.3272304100         0.3083545312
s   1 1.0 
        0.1030724100         0.1296483265
p   1 1.0 
        0.8000000000         1.0784563492

 19 0
s   6 1.0 
    13575.3496820000         0.5435905310
     2035.2333680000         1.0145543947
      463.2256235900         1.7315731970
      131.2001959800         2.6910376290
       42.8530158910         3.6044547126
       15.5841857660         3.7025556986
s   2 1.0 
        6.2067138508         1.8383540830
        2.5764896527         0.5447575605
s   1 1.0 
        0.5769633942         0.4718145038
s   1 1.0 
        0.2297283136         0.2364944676
s   1 1.0 
        0.0951644400         0.1221141848
p   4 1.0 
       34.6972322440         1.3596651507
        7.9582622826         1.4512589486
        2.3780826883         1.2709231419
        0.8143320818         0.8025721189
p   1 1.0 
        0.2888754725         0.3018758868
p   1 1.0 
        0.1005682367         0.0807265016
d   1 1.0 
        1.0970000000         3.3522135855
d   1 1.0 
        0.3180000000         0.3838994974
f   1 1.0 
        0.7610000000         3.0840084332

 20 0
s   3 1.0 
       34.0613410000         0.2556299169
        5.1235746000         0.4613599649
        1.1646626000         0.6811214941
s   1 1.0 
        0.3272304100         0.3083545312
s   1 1.0 
        0.1030724100         0.1296483265
p   1 1.0 
        0.8000000000         1.0784563492

 21 0
s   3 1.0 
       34.0613410000         0.2556299169
        5.1235746000         0.4613599649
        1.1646626000         0.6811214941
s   1 1.0 
        0.3272304100         0.3083545312
s   1 1.0 
        0.1030724100         0.1296483265
p   1 1.0 
        0.8000000000         1.0784563492

 22 0
s   3 1.0 
       34.0613410000         0.2556299169
        5.1235746000         0.4613599649
        1.1646626000         0.6811214941
s   1 1.0 
        0.3272304100         0.3083545312
s   1 1.0 
        0.1030724100         0.1296483265
p   1 1.0 
        0.8000000000         1.0784563492

[5D]
[7F]
[9G]
[MO]
 Sym=     1a
 Ene= -1.90929738777576E+01
 Spin= Alpha
 Occup= 2.000000
  1      -0.000001032594
  2       0.000004915950
  3       0.000043249285
  4      -0.000433617401
  5      -0.001693195681
  6       0.000015319330
  7       0.000000204964
  8       0.000003138908
  9      -0.000428537357
 10      -0.000089631132
 11       0.000015132972
 12      -0.000465296479
 13      -0.000192670509
 14       0.000132231614
 15       0.000006926717
 16      -0.000004546812
 17       0.000002324356
 18      -0.000004455669
 19      -0.000005182268
 20       0.000049299821
 21       0.000002789448
 22      -0.000022933673
 23      -0.000120580268
 24      -0.000103176412
 25       0.000001775254
 26       0.000014733412
 27       0.000006059405
 28      -0.000008690801
 29      -0.000002879307
 30       0.000006447306
 31       0.000012560025
 32      -0.000012709582
 33      -0.000041416300
 34       0.000060211841
 35      -0.000011380334
 36       0.000006059065
 37       0.000004577628
 38      -0.000008791395
 39       0.000097517225
 40       0.000078624108
 41      -0.000000762751
 42       0.000006209210
 43       0.000003980392
 44      -0.000005275540
 45       0.000046702374
 46       0.000143258040
 47       0.000012772045
 48       0.000009920918
 49      -0.000002456365
 50       0.000002302990
 51      -0.000011680981
 52       0.000067485029
 53      -0.000371019082
 54       0.000390259134
 55       0.000035731376
 56      -0.000013229330
 57      -0.000000060667
 58      -0.000435530423
 59      -0.000218696061
 60       0.000117444897
 61      -0.001198231730
 62       0.000008393334
 63       0.000141999191
 64      -0.000013585988
 65       0.000025343082
 66       0.000020796731
 67      -0.000008992719
 68      -0.000023994951
 69      -0.000015611734
 70      -0.000175549917
 71      -0.000144092976
 72       0.000070808887
 73       0.000217127505
 74       0.000002732071
 75       0.000005457747
 76       0.000018201673
 77       0.000017617138
 78       0.000017812281
 79       0.000011406801
 80      -0.000005974837
 81       0.000085143069
 82       0.000114288521
 83       0.000088606537
 84      -0.000256638206
 85       0.000478446297
 86       0.000013649043
 87      -0.000001255151
 88      -0.000016315279
 89      -0.000100049630
 90      -0.000005455427
 91       0.000101899829
 92       0.000277174476
 93      -0.000178023250
 94      -0.000133679276
 95      -0.000001044753
 96       0.000010058284
 97       0.000001010034
 98       0.000000816639
 99       0.000001729483
100       0.000005502055
101      -0.000029776069
102      -0.000026723963
103      -0.000008409303
104       0.000009831039
105      -0.000002393981
106       0.000002913579
107      -0.000004347214
108      -0.000006812326
109       0.000000567411
110      -0.000001814451
111       0.000001026071
112       0.000002942648
113      -0.000017789314
114       0.000370641553
115      -0.001631943573
116      -0.002685645132
117       0.000055081936
118      -0.000004496759
119      -0.000007392411
120      -0.000992720716
121      -0.000120983408
122       0.000286199228
123      -0.001832790785
124       0.000864677423
125      -0.000482609339
126      -0.000040001287
127       0.000020389898
128       0.000010726864
129       0.000019220316
130      -0.000021262161
131       0.000263366108
132       0.000113746499
133       0.000031936041
134      -0.000317766134
135      -0.000027426597
136      -0.000032072306
137      -0.000001376221
138       0.000002225795
139       0.000041845265
140       0.000007337583
141       0.000017790892
142       0.000004143824
143      -0.000000994575
144       0.000243686262
145       0.000188390589
146       0.000031470937
147       0.000030060078
148       0.000007830318
149      -0.000012179540
150       0.000058890850
151      -0.000185499105
152      -0.003135624199
153       0.011331883614
154       0.000084368054
155      -0.000000282589
156       0.000162740755
157      -0.002118257664
158      -0.000496686121
159       0.001289292811
160      -0.002262428652
161      -0.005618940346
162      -0.000406464562
163      -0.000057176110
164       0.000043665189
165       0.000016131894
166      -0.000008382264
167      -0.000103896580
168      -0.000963010238
169      -0.000169432938
170      -0.000064939561
171       0.000704916201
172       0.001251777679
173       0.000124297669
174       0.000059454307
175       0.000024178486
176      -0.000005055437
177      -0.000087355935
178       0.000029903393
179       0.000039725812
180      -0.000001853581
181       0.000759188022
182       0.000384905641
183      -0.000141147544
184      -0.000135367398
185       0.000006781295
186       0.000004173129
187      -0.000020731157
188       0.000073934038
189       0.000586760868
190      -0.005103051760
191      -0.000012002640
192       0.000017072357
193      -0.000037063918
194      -0.000308967585
195       0.000364332780
196      -0.000202255490
197       0.001087287509
198       0.000543942007
199       0.002221849388
200       0.000047233499
201       0.000036014567
202      -0.000007765829
203       0.000008001567
204       0.000032123630
205       0.000048327348
206       0.000050972656
207      -0.000155826145
208      -0.000023601925
209      -0.000323296005
210      -0.000009749057
211      -0.000060092185
212       0.000009071875
213      -0.000033351226
214       0.000040276878
215      -0.000043017763
216       0.000012665977
217       0.000006341737
218      -0.000182577263
219      -0.000553145534
220       0.000016002894
221      -0.000043019490
222       0.000044355208
223      -0.000013758339
224       0.000302550529
225       0.001241288700
226      -0.000005906187
227       0.000062065179
228      -0.000029635943
229       0.000011681298
230       0.000216127256
231      -0.000379283364
232       0.000007428726
233      -0.000015020507
234       0.000055307949
235      -0.000047959323
236       0.000276875601
237       0.000206011939
238      -0.006703159708
239      -0.003225173083
240      -0.000431117689
241      -0.000345060156
242       0.000093448310
243      -0.006380127353
244      -0.003684792089
245       0.004301946657
246       0.010259157763
247       0.006949800041
248      -0.000645744918
249       0.000141218220
250       0.000181349947
251       0.000088413276
252      -0.000194488947
253      -0.000423464833
254       0.002797388983
255       0.001517657184
256       0.001244170003
257      -0.001578024670
258      -0.003521021467
259       0.000016297216
260      -0.000097046945
261      -0.000034510433
262       0.000110935100
263       0.000177784158
264      -0.000065562640
265       0.000356994284
266      -0.435099530145
267      -0.639482712778
268      -0.036832417005
269       0.032101911511
270      -0.015504533019
271       0.001685820408
272       0.001107462201
273      -0.000590054827
274      -0.005331226217
275      -0.003450322573
276       0.001946569979
277       0.000719918235
278       0.000462781899
279      -0.000650024754
280       0.000148227891
281       0.000121751829
282       0.000081035760
283      -0.000084069272
284      -0.000193281744
285      -0.000751013142
286      -0.000675915951
287      -0.000442225813
288       0.000535565256
289       0.001207090254
290      -0.000071125646
291       0.000075431090
292       0.000049862451
293       0.000039658159
294       0.000094031242
295      -0.000026909183
296       0.000162157200
297      -0.000006350684
298       0.000037234500
299      -0.000414280657
300      -0.000523187321
301       0.009474006464
302      -0.000046971470
303      -0.000037187396
304      -0.000071935324
305      -0.000528508490
306      -0.000282703148
307       0.000232361069
308       0.000647499119
309       0.000328703345
310       0.003634726643
311      -0.000079667121
312      -0.000011330242
313      -0.000006497353
314      -0.000057609069
315      -0.000118037408
316       0.000490886383
317      -0.000008345901
318       0.000011987918
319       0.000307363508
320       0.000645242842
321       0.000022409964
322       0.000013696860
323       0.000004884447
324       0.000039965341
325       0.000092414964
326       0.000017262437
327      -0.000073153852
328      -0.000091165164
329      -0.001291615063
330       0.000316564621
331      -0.000234885182
332      -0.000124578305
333       0.000012632094
334      -0.000003786590
335       0.000017289907
336      -0.000017093760
337      -0.000259261810
338       0.002642798402
339      -0.000027307868
340      -0.000022539722
341      -0.000066178286
342      -0.000092268786
343       0.000090779960
344      -0.000315286967
345      -0.000334736529
346       0.000081938968
347      -0.000079722076
348      -0.000043555072
349      -0.000051171853
350      -0.000031707878
351      -0.000010441011
352      -0.000023190967
353      -0.000136117893
354       0.000273614254
355       0.000168901111
356      -0.000013193107
357       0.000065757793
358      -0.000035953068
359      -0.000013656756
360       0.000006973269
361      -0.000028969112
362      -0.000057484149
363       0.000007382124
364      -0.000002832087
365       0.000025393582
366      -0.000263393775
367      -0.000811824380
368      -0.000051571524
369       0.000026674486
370      -0.000096292135
371       0.000037386078
372      -0.000035953827
373      -0.000566417289
374      -0.000036292879
375      -0.000031036062
376      -0.000080577360
377      -0.000012399811
378      -0.000388496379
379      -0.000622680902
380      -0.000059741242
381      -0.000020474050
382      -0.000001680053
 Sym=     1a
 Ene= -1.90875738738323E+01
 Spin= Alpha
 Occup= 2.000000
  1      -0.000018769236
  2       0.000092553346
  3      -0.000710955812
  4      -0.000243769124
  5       0.006178906515
  6      -0.000212859059
  7      -0.000208131734
  8       0.000049870963
  9      -0.000158144637
 10       0.000412818469
 11       0.000122550727
 12       0.001820768262
 13       0.000022406712
 14       0.000034707078
 15       0.000078554237
 16       0.000017674445
 17       0.000019252712
 18      -0.000015121437
 19      -0.000011739553
 20      -0.000985011130
 21      -0.000091220185
 22      -0.000123612269
 23       0.000061255180
 24      -0.000759597345
 25       0.000046384870
 26      -0.000096189180
 27      -0.000002423412
 28       0.000006230255
 29      -0.000002773813
 30      -0.000023781649
 31       0.000118431716
 32      -0.000166177198
 33      -0.000882823825
 34      -0.000503983133
 35      -0.000083122954
 36       0.000113966406
 37      -0.000007187565
 38       0.000043543295
 39       0.000879647287
 40      -0.000304729942
 41       0.000059816981
 42       0.000180040084
 43       0.000023163498
 44       0.000038178824
 45       0.000666147878
 46      -0.000490236262
 47       0.000002532670
 48       0.000193436634
 49      -0.000036878885
 50      -0.000048798612
 51       0.000281605369
 52       0.000191881253
 53      -0.007496749286
 54      -0.002388299911
 55       0.000025989860
 56      -0.000594363250
 57       0.000083204754
 58      -0.000852376360
 59      -0.007242130293
 60       0.001270461528
 61       0.002142959996
 62       0.008776764497
 63      -0.002153155688
 64       0.000320896618
 65       0.000017491517
 66       0.000138642643
 67       0.000363685724
 68       0.000012103733
 69       0.001837382205
 70      -0.000047083969
 71       0.001370466635
 72       0.004644269861
 73      -0.000112863198
 74      -0.000104870929
 75      -0.000034993185
 76       0.000276282211
 77      -0.000087091974
 78       0.000046928655
 79      -0.000060399617
 80      -0.000016003596
 81      -0.435094724716
 82      -0.639495128021
 83      -0.036641541655
 84       0.031385544107
 85      -0.013781710937
 86      -0.000034509542
 87       0.002083155151
 88      -0.000295966238
 89      -0.000034284984
 90      -0.006477965576
 91       0.000974553514
 92      -0.000410335040
 93       0.000991138251
 94       0.000050099503
 95       0.000097872444
 96      -0.000011134208
 97       0.000073833692
 98       0.000276038248
 99      -0.000018159741
100      -0.000666036473
101       0.000026120869
102      -0.000428053245
103      -0.001462214301
104       0.000061035134
105      -0.000048718780
106      -0.000001109860
107       0.000115795558
108      -0.000060960385
109      -0.000000497644
110       0.000007948768
111      -0.000160317344
112      -0.000010914839
113       0.000064004956
114      -0.000590198672
115       0.000102337182
116       0.003103219294
117       0.000083919294
118      -0.000029175037
119      -0.000011496615
120       0.000017199053
121      -0.000794576569
122       0.000234408947
123      -0.003882464507
124      -0.001240560001
125       0.001038641036
126       0.000147182680
127       0.000008151339
128       0.000040686308
129      -0.000030286250
130       0.000017506336
131      -0.000722673250
132      -0.000097410618
133      -0.000252272974
134       0.000296980519
135       0.000094917296
136      -0.000023271448
137       0.000117685613
138      -0.000068845194
139       0.000022511211
140       0.000034632285
141      -0.000003461902
142      -0.000003136215
143      -0.000086801154
144      -0.001120141858
145       0.000245419771
146       0.000009873159
147      -0.000136181461
148       0.000178968344
149      -0.000005247862
150       0.000024838888
151      -0.000131407488
152       0.000533122930
153       0.007191746279
154       0.000074754054
155      -0.000009410070
156       0.000012703106
157       0.000073763720
158       0.000275641686
159      -0.000831257740
160      -0.000834011025
161       0.000710409729
162      -0.002977490479
163       0.000039636840
164      -0.000001043404
165      -0.000036474674
166      -0.000046658950
167       0.000040985371
168       0.000207052261
169      -0.000044000239
170       0.000332296580
171      -0.000006570020
172      -0.000156644829
173      -0.000013924570
174      -0.000024796854
175       0.000019131920
176       0.000001157232
177      -0.000028935427
178      -0.000001624895
179       0.000034708364
180      -0.000028107918
181      -0.000434309177
182      -0.001206703398
183       0.000055038110
184       0.000017981625
185       0.000027218674
186       0.000000022219
187       0.000000219168
188      -0.000074555226
189       0.000249939958
190       0.001445577010
191       0.000056707395
192      -0.000010026245
193      -0.000016592536
194      -0.000442005646
195       0.000126954752
196       0.000077788047
197      -0.000104885689
198       0.000488447831
199      -0.000196217754
200       0.000019117960
201       0.000012097823
202      -0.000000013920
203      -0.000008734695
204       0.000016253749
205      -0.000116555096
206       0.000028888836
207      -0.000020873917
208       0.000173820465